<?xml version="1.0" encoding="UTF-8"?>

<!-- generated on 2026-07-21T18:51:30.423652+05:30 by Eclipse SUMO sumo 1.27.1
<sumoConfiguration xmlns:xsi="http://www.w3.org/2001/XMLSchema-instance" xsi:noNamespaceSchemaLocation="http://sumo.dlr.de/xsd/sumoConfiguration.xsd">

    <input>
        <net-file value="D:\SUMO_Workspace\Projects\Ai-traffic-Control-System\maps\location_2\osm.net.xml.gz"/>
        <route-files value="D:\SUMO_Workspace\Projects\Ai-traffic-Control-System\maps\location_2\osm.bus.trips.xml,D:\SUMO_Workspace\Projects\Ai-traffic-Control-System\maps\location_2\osm.motorcycle.trips.xml,D:\SUMO_Workspace\Projects\Ai-traffic-Control-System\maps\location_2\osm.passenger.trips.xml,D:\SUMO_Workspace\Projects\Ai-traffic-Control-System\maps\location_2\osm.truck.trips.xml,D:\SUMO_Workspace\Projects\Ai-traffic-Control-System\maps\location_2\osm_pt.rou.xml"/>
        <additional-files value="D:\SUMO_Workspace\Projects\Ai-traffic-Control-System\maps\location_2\osm.poly.xml.gz,D:\SUMO_Workspace\Projects\Ai-traffic-Control-System\maps\location_2\osm_stops.add.xml,D:\SUMO_Workspace\Projects\Ai-traffic-Control-System\maps\location_2\output.add.xml"/>
    </input>

    <output>
        <tripinfo-output value="D:\SUMO_Workspace\Projects\Ai-traffic-Control-System\maps\location_2\tripinfos.xml"/>
        <stop-output value="D:\SUMO_Workspace\Projects\Ai-traffic-Control-System\maps\location_2\stopinfos.xml"/>
        <statistic-output value="D:\SUMO_Workspace\Projects\Ai-traffic-Control-System\maps\location_2\stats.xml"/>
    </output>

    <processing>
        <ignore-route-errors value="true"/>
        <tls.actuated.jam-threshold value="30"/>
    </processing>

    <routing>
        <device.rerouting.adaptation-steps value="18"/>
        <device.rerouting.adaptation-interval value="10"/>
    </routing>

    <report>
        <verbose value="true"/>
        <duration-log.statistics value="true"/>
        <no-step-log value="true"/>
    </report>

    <traci_server>
        <remote-port value="61412"/>
    </traci_server>

    <gui_only>
        <gui-settings-file value="D:\SUMO_Workspace\Projects\Ai-traffic-Control-System\maps\location_2\osm.view.xml"/>
    </gui_only>

</sumoConfiguration>
-->

<tripinfos xmlns:xsi="http://www.w3.org/2001/XMLSchema-instance" xsi:noNamespaceSchemaLocation="http://sumo.dlr.de/xsd/tripinfo_file.xsd">
    <tripinfo id="motorcycle13" depart="11.00" departLane="-164910162#9_0" departPos="2.30" departSpeed="13.08" departDelay="0.49" arrival="39.00" arrivalLane="-1057069174_0" arrivalPos="14.54" arrivalSpeed="12.84" duration="28.00" routeLength="272.18" waitingTime="0.00" waitingCount="0" stopTime="0.00" timeLoss="5.19" rerouteNo="1" devices="tripinfo_motorcycle13 routing_motorcycle13" vType="motorcycle_motorcycle" speedFactor="0.94" vaporized=""/>
    <tripinfo id="motorcycle17" depart="14.00" departLane="423593976#1_0" departPos="2.30" departSpeed="13.89" departDelay="0.25" arrival="50.00" arrivalLane="-423619321#0_0" arrivalPos="61.50" arrivalSpeed="12.31" duration="36.00" routeLength="404.09" waitingTime="0.00" waitingCount="0" stopTime="0.00" timeLoss="5.57" rerouteNo="1" devices="tripinfo_motorcycle17 routing_motorcycle17" vType="motorcycle_motorcycle" speedFactor="1.01" vaporized=""/>
    <tripinfo id="motorcycle0" depart="0.00" departLane="-1075090207_0" departPos="2.30" departSpeed="13.89" departDelay="0.00" arrival="55.00" arrivalLane="24577416#1_0" arrivalPos="42.96" arrivalSpeed="13.67" duration="55.00" routeLength="901.91" waitingTime="0.00" waitingCount="0" stopTime="0.00" timeLoss="14.71" rerouteNo="1" devices="tripinfo_motorcycle0 routing_motorcycle0" vType="motorcycle_motorcycle" speedFactor="1.06" vaporized=""/>
    <tripinfo id="motorcycle2" depart="2.00" departLane="164702314#5_0" departPos="2.30" departSpeed="6.32" departDelay="0.38" arrival="56.00" arrivalLane="421287877#0_0" arrivalPos="20.02" arrivalSpeed="14.10" duration="54.00" routeLength="579.82" waitingTime="0.00" waitingCount="0" stopTime="0.00" timeLoss="11.61" rerouteNo="1" devices="tripinfo_motorcycle2 routing_motorcycle2" vType="motorcycle_motorcycle" speedFactor="1.05" vaporized=""/>
    <tripinfo id="motorcycle11" depart="9.00" departLane="-24577416#5_0" departPos="2.30" departSpeed="12.87" departDelay="0.10" arrival="56.00" arrivalLane="1075090208_0" arrivalPos="49.52" arrivalSpeed="12.14" duration="47.00" routeLength="454.26" waitingTime="0.00" waitingCount="0" stopTime="0.00" timeLoss="14.75" rerouteNo="1" devices="tripinfo_motorcycle11 routing_motorcycle11" vType="motorcycle_motorcycle" speedFactor="0.93" vaporized=""/>
    <tripinfo id="motorcycle51" depart="42.00" departLane="-132087594#8_0" departPos="2.30" departSpeed="13.83" departDelay="0.76" arrival="60.00" arrivalLane="132087594#5_0" arrivalPos="45.31" arrivalSpeed="13.27" duration="18.00" routeLength="187.48" waitingTime="0.00" waitingCount="0" stopTime="0.00" timeLoss="3.33" rerouteNo="1" devices="tripinfo_motorcycle51 routing_motorcycle51" vType="motorcycle_motorcycle" speedFactor="1.00" vaporized=""/>
    <tripinfo id="motorcycle30" depart="25.00" departLane="-28153848#9_0" departPos="2.30" departSpeed="13.82" departDelay="0.74" arrival="63.00" arrivalLane="1057070263_0" arrivalPos="12.83" arrivalSpeed="10.48" duration="38.00" routeLength="400.38" waitingTime="0.00" waitingCount="0" stopTime="0.00" timeLoss="7.28" rerouteNo="1" devices="tripinfo_motorcycle30 routing_motorcycle30" vType="motorcycle_motorcycle" speedFactor="0.99" vaporized=""/>
    <tripinfo id="motorcycle54" depart="44.00" departLane="-1183836790#3_0" departPos="2.30" departSpeed="13.89" departDelay="0.33" arrival="64.00" arrivalLane="1183836790#1_0" arrivalPos="55.94" arrivalSpeed="13.02" duration="20.00" routeLength="213.01" waitingTime="0.00" waitingCount="0" stopTime="0.00" timeLoss="4.38" rerouteNo="1" devices="tripinfo_motorcycle54 routing_motorcycle54" vType="motorcycle_motorcycle" speedFactor="1.02" vaporized=""/>
    <tripinfo id="motorcycle20" depart="17.00" departLane="660123527#0_0" departPos="2.30" departSpeed="11.47" departDelay="0.83" arrival="66.00" arrivalLane="696817949_0" arrivalPos="70.06" arrivalSpeed="10.77" duration="49.00" routeLength="450.08" waitingTime="0.00" waitingCount="0" stopTime="0.00" timeLoss="7.88" rerouteNo="1" devices="tripinfo_motorcycle20 routing_motorcycle20" vType="motorcycle_motorcycle" speedFactor="0.83" vaporized=""/>
    <tripinfo id="motorcycle29" depart="24.00" departLane="-421280699#3_0" departPos="2.30" departSpeed="2.78" departDelay="0.55" arrival="68.00" arrivalLane="-421280687#1_0" arrivalPos="10.04" arrivalSpeed="14.15" duration="44.00" routeLength="489.88" waitingTime="0.00" waitingCount="0" stopTime="0.00" timeLoss="9.20" rerouteNo="1" devices="tripinfo_motorcycle29 routing_motorcycle29" vType="motorcycle_motorcycle" speedFactor="1.17" vaporized=""/>
    <tripinfo id="motorcycle7" depart="6.00" departLane="28121486#4_0" departPos="2.30" departSpeed="13.89" departDelay="0.34" arrival="81.00" arrivalLane="80950098#7_0" arrivalPos="24.68" arrivalSpeed="13.44" duration="75.00" routeLength="891.76" waitingTime="0.00" waitingCount="0" stopTime="0.00" timeLoss="11.02" rerouteNo="1" devices="tripinfo_motorcycle7 routing_motorcycle7" vType="motorcycle_motorcycle" speedFactor="1.03" vaporized=""/>
    <tripinfo id="motorcycle47" depart="39.00" departLane="-686607120#1_0" departPos="2.30" departSpeed="13.89" departDelay="0.99" arrival="82.00" arrivalLane="169413596_0" arrivalPos="47.13" arrivalSpeed="14.88" duration="43.00" routeLength="540.28" waitingTime="0.00" waitingCount="0" stopTime="0.00" timeLoss="7.69" rerouteNo="1" devices="tripinfo_motorcycle47 routing_motorcycle47" vType="motorcycle_motorcycle" speedFactor="1.17" vaporized=""/>
    <tripinfo id="motorcycle3" depart="3.00" departLane="1163938863#2_1" departPos="2.30" departSpeed="4.93" departDelay="0.57" arrival="84.00" arrivalLane="265763301#3_0" arrivalPos="14.47" arrivalSpeed="11.46" duration="81.00" routeLength="371.14" waitingTime="0.00" waitingCount="0" stopTime="0.00" timeLoss="18.90" rerouteNo="1" devices="tripinfo_motorcycle3 routing_motorcycle3" vType="motorcycle_motorcycle" speedFactor="0.89" vaporized=""/>
    <tripinfo id="motorcycle44" depart="36.00" departLane="-1255161707#2_0" departPos="2.30" departSpeed="2.90" departDelay="0.42" arrival="88.00" arrivalLane="-44315453#16_0" arrivalPos="26.80" arrivalSpeed="10.53" duration="52.00" routeLength="459.37" waitingTime="0.00" waitingCount="0" stopTime="0.00" timeLoss="11.98" rerouteNo="1" devices="tripinfo_motorcycle44 routing_motorcycle44" vType="motorcycle_motorcycle" speedFactor="0.88" vaporized=""/>
    <tripinfo id="motorcycle45" depart="37.00" departLane="1071504738_0" departPos="2.30" departSpeed="11.81" departDelay="0.61" arrival="90.00" arrivalLane="1057071808#2_0" arrivalPos="12.98" arrivalSpeed="11.11" duration="53.00" routeLength="438.44" waitingTime="0.00" waitingCount="0" stopTime="0.00" timeLoss="10.84" rerouteNo="1" devices="tripinfo_motorcycle45 routing_motorcycle45" vType="motorcycle_motorcycle" speedFactor="0.85" vaporized=""/>
    <tripinfo id="motorcycle71" depart="58.00" departLane="-1057071794_0" departPos="2.30" departSpeed="13.68" departDelay="0.58" arrival="92.00" arrivalLane="-265763295#0_0" arrivalPos="66.04" arrivalSpeed="11.47" duration="34.00" routeLength="341.15" waitingTime="0.00" waitingCount="0" stopTime="0.00" timeLoss="6.64" rerouteNo="1" devices="tripinfo_motorcycle71 routing_motorcycle71" vType="motorcycle_motorcycle" speedFactor="0.98" vaporized=""/>
    <tripinfo id="motorcycle23" depart="19.00" departLane="-1057071813#1_0" departPos="2.30" departSpeed="10.38" departDelay="0.40" arrival="98.00" arrivalLane="423409326_0" arrivalPos="56.60" arrivalSpeed="2.39" duration="79.00" routeLength="474.98" waitingTime="1.00" waitingCount="1" stopTime="0.00" timeLoss="21.34" rerouteNo="1" devices="tripinfo_motorcycle23 routing_motorcycle23" vType="motorcycle_motorcycle" speedFactor="0.95" vaporized=""/>
    <tripinfo id="motorcycle27" depart="22.00" departLane="112102244#4_0" departPos="2.30" departSpeed="13.89" departDelay="0.17" arrival="98.00" arrivalLane="1187268496#0_1" arrivalPos="16.95" arrivalSpeed="14.28" duration="76.00" routeLength="1217.64" waitingTime="0.00" waitingCount="0" stopTime="0.00" timeLoss="15.82" rerouteNo="1" devices="tripinfo_motorcycle27 routing_motorcycle27" vType="motorcycle_motorcycle" speedFactor="1.15" vaporized=""/>
    <tripinfo id="motorcycle48" depart="39.00" departLane="-23151096#0_0" departPos="2.30" departSpeed="11.97" departDelay="0.18" arrival="100.00" arrivalLane="1185427971_0" arrivalPos="75.67" arrivalSpeed="13.75" duration="61.00" routeLength="899.02" waitingTime="0.00" waitingCount="0" stopTime="0.00" timeLoss="13.02" rerouteNo="1" devices="tripinfo_motorcycle48 routing_motorcycle48" vType="motorcycle_motorcycle" speedFactor="1.02" vaporized=""/>
    <tripinfo id="motorcycle65" depart="53.00" departLane="-80440840#10_0" departPos="2.30" departSpeed="13.89" departDelay="0.44" arrival="100.00" arrivalLane="-220385651#15_0" arrivalPos="10.95" arrivalSpeed="11.27" duration="47.00" routeLength="406.94" waitingTime="1.00" waitingCount="1" stopTime="0.00" timeLoss="16.38" rerouteNo="1" devices="tripinfo_motorcycle65 routing_motorcycle65" vType="motorcycle_motorcycle" speedFactor="1.02" vaporized=""/>
    <tripinfo id="truck26" depart="11.00" departLane="-167468610#12_0" departPos="7.20" departSpeed="13.23" departDelay="0.09" arrival="102.00" arrivalLane="167468614#3_0" arrivalPos="52.05" arrivalSpeed="13.17" duration="91.00" routeLength="992.49" waitingTime="0.00" waitingCount="0" stopTime="0.00" timeLoss="13.69" rerouteNo="1" devices="tripinfo_truck26 routing_truck26" vType="truck_truck" speedFactor="0.95" vaporized=""/>
    <tripinfo id="motorcycle14" depart="12.00" departLane="1071520557_0" departPos="2.30" departSpeed="2.03" departDelay="0.68" arrival="109.00" arrivalLane="1071178129#2_0" arrivalPos="7.46" arrivalSpeed="12.93" duration="97.00" routeLength="876.46" waitingTime="0.00" waitingCount="0" stopTime="0.00" timeLoss="22.15" rerouteNo="1" devices="tripinfo_motorcycle14 routing_motorcycle14" vType="motorcycle_motorcycle" speedFactor="0.94" vaporized=""/>
    <tripinfo id="motorcycle70" depart="57.00" departLane="-746046968_0" departPos="2.30" departSpeed="13.27" departDelay="0.39" arrival="116.00" arrivalLane="-422163472#0_0" arrivalPos="0.63" arrivalSpeed="12.51" duration="59.00" routeLength="548.28" waitingTime="0.00" waitingCount="0" stopTime="0.00" timeLoss="12.86" rerouteNo="1" devices="tripinfo_motorcycle70 routing_motorcycle70" vType="motorcycle_motorcycle" speedFactor="0.96" vaporized=""/>
    <tripinfo id="veh222" depart="63.00" departLane="-1074385951#0_0" departPos="5.10" departSpeed="9.40" departDelay="0.88" arrival="116.00" arrivalLane="-1255169230#0_0" arrivalPos="0.20" arrivalSpeed="6.99" duration="53.00" routeLength="602.30" waitingTime="0.00" waitingCount="0" stopTime="0.00" timeLoss="9.98" rerouteNo="1" devices="tripinfo_veh222 routing_veh222" vType="veh_passenger" speedFactor="1.02" vaporized=""/>
    <tripinfo id="motorcycle110" depart="89.00" departLane="-424036566_0" departPos="2.30" departSpeed="13.89" departDelay="0.04" arrival="124.00" arrivalLane="-1427897684#1_0" arrivalPos="21.99" arrivalSpeed="13.22" duration="35.00" routeLength="411.51" waitingTime="0.00" waitingCount="0" stopTime="0.00" timeLoss="6.02" rerouteNo="1" devices="tripinfo_motorcycle110 routing_motorcycle110" vType="motorcycle_motorcycle" speedFactor="1.10" vaporized=""/>
    <tripinfo id="motorcycle55" depart="45.00" departLane="-1057069632_0" departPos="2.30" departSpeed="2.70" departDelay="0.52" arrival="126.00" arrivalLane="-1123830791#1_0" arrivalPos="14.09" arrivalSpeed="11.82" duration="81.00" routeLength="825.65" waitingTime="5.00" waitingCount="1" stopTime="0.00" timeLoss="23.82" rerouteNo="1" devices="tripinfo_motorcycle55 routing_motorcycle55" vType="motorcycle_motorcycle" speedFactor="0.97" vaporized=""/>
    <tripinfo id="motorcycle81" depart="66.00" departLane="-819419172#1_0" departPos="2.30" departSpeed="13.56" departDelay="0.50" arrival="127.00" arrivalLane="242476849#1_0" arrivalPos="65.30" arrivalSpeed="20.03" duration="61.00" routeLength="992.33" waitingTime="0.00" waitingCount="0" stopTime="0.00" timeLoss="8.43" rerouteNo="1" devices="tripinfo_motorcycle81 routing_motorcycle81" vType="motorcycle_motorcycle" speedFactor="0.98" vaporized=""/>
    <tripinfo id="bus80" depart="68.00" departLane="80439704#2_1" departPos="12.10" departSpeed="22.22" departDelay="0.99" arrival="129.00" arrivalLane="-1236568627_0" arrivalPos="80.15" arrivalSpeed="13.87" duration="61.00" routeLength="800.87" waitingTime="0.00" waitingCount="0" stopTime="0.00" timeLoss="11.98" rerouteNo="1" devices="tripinfo_bus80 routing_bus80" vType="bus_bus" speedFactor="1.00" vaporized=""/>
    <tripinfo id="motorcycle82" depart="70.00" departLane="-424014444#5_0" departPos="2.30" departSpeed="13.89" departDelay="3.69" arrival="129.00" arrivalLane="1210918838_0" arrivalPos="25.26" arrivalSpeed="13.48" duration="59.00" routeLength="682.38" waitingTime="0.00" waitingCount="0" stopTime="0.00" timeLoss="8.62" rerouteNo="1" devices="tripinfo_motorcycle82 routing_motorcycle82" vType="motorcycle_motorcycle" speedFactor="1.00" vaporized=""/>
    <tripinfo id="veh175" depart="49.00" departLane="-168898783#1_0" departPos="5.10" departSpeed="13.89" departDelay="0.03" arrival="129.00" arrivalLane="1149879785_0" arrivalPos="64.15" arrivalSpeed="19.91" duration="80.00" routeLength="1126.54" waitingTime="0.00" waitingCount="0" stopTime="0.00" timeLoss="20.05" rerouteNo="1" devices="tripinfo_veh175 routing_veh175" vType="veh_passenger" speedFactor="1.05" vaporized=""/>
    <tripinfo id="veh162" depart="46.00" departLane="80950098#8_0" departPos="5.10" departSpeed="11.16" departDelay="0.67" arrival="130.00" arrivalLane="760525678#1_0" arrivalPos="1.96" arrivalSpeed="4.55" duration="84.00" routeLength="1153.01" waitingTime="0.00" waitingCount="0" stopTime="0.00" timeLoss="14.30" rerouteNo="1" devices="tripinfo_veh162 routing_veh162" vType="veh_passenger" speedFactor="0.80" vaporized=""/>
    <tripinfo id="motorcycle104" depart="85.00" departLane="-23151097#4_0" departPos="2.30" departSpeed="13.89" departDelay="0.90" arrival="131.00" arrivalLane="1238033030#0_0" arrivalPos="29.10" arrivalSpeed="13.65" duration="46.00" routeLength="490.92" waitingTime="0.00" waitingCount="0" stopTime="0.00" timeLoss="9.83" rerouteNo="1" devices="tripinfo_motorcycle104 routing_motorcycle104" vType="motorcycle_motorcycle" speedFactor="1.06" vaporized=""/>
    <tripinfo id="veh111" depart="32.00" departLane="-424021825_0" departPos="5.10" departSpeed="13.89" departDelay="0.94" arrival="133.00" arrivalLane="-371321386#1_0" arrivalPos="12.33" arrivalSpeed="15.66" duration="101.00" routeLength="1374.90" waitingTime="0.00" waitingCount="0" stopTime="0.00" timeLoss="15.29" rerouteNo="1" devices="tripinfo_veh111 routing_veh111" vType="veh_passenger" speedFactor="1.20" vaporized=""/>
    <tripinfo id="motorcycle16" depart="13.00" departLane="-169413606#1_0" departPos="2.30" departSpeed="13.89" departDelay="0.06" arrival="135.00" arrivalLane="-38116073#4_0" arrivalPos="21.47" arrivalSpeed="13.26" duration="122.00" routeLength="1745.74" waitingTime="0.00" waitingCount="0" stopTime="0.00" timeLoss="24.08" rerouteNo="1" devices="tripinfo_motorcycle16 routing_motorcycle16" vType="motorcycle_motorcycle" speedFactor="1.02" vaporized=""/>
    <tripinfo id="motorcycle101" depart="82.00" departLane="424014417#0_0" departPos="2.30" departSpeed="14.90" departDelay="0.32" arrival="135.00" arrivalLane="-167468622#0_0" arrivalPos="119.81" arrivalSpeed="12.73" duration="53.00" routeLength="585.14" waitingTime="0.00" waitingCount="0" stopTime="0.00" timeLoss="10.78" rerouteNo="1" devices="tripinfo_motorcycle101 routing_motorcycle101" vType="motorcycle_motorcycle" speedFactor="1.07" vaporized=""/>
    <tripinfo id="motorcycle9" depart="8.00" departLane="-706298748_0" departPos="2.30" departSpeed="15.60" departDelay="0.72" arrival="136.00" arrivalLane="235103536#0_0" arrivalPos="11.22" arrivalSpeed="12.65" duration="128.00" routeLength="1574.42" waitingTime="28.00" waitingCount="2" stopTime="0.00" timeLoss="54.88" rerouteNo="1" devices="tripinfo_motorcycle9 routing_motorcycle9" vType="motorcycle_motorcycle" speedFactor="1.12" vaporized=""/>
    <tripinfo id="motorcycle131" depart="106.00" departLane="-338959812#8_0" departPos="2.30" departSpeed="13.89" departDelay="0.06" arrival="136.00" arrivalLane="-276169618#2_0" arrivalPos="11.27" arrivalSpeed="12.69" duration="30.00" routeLength="294.55" waitingTime="0.00" waitingCount="0" stopTime="0.00" timeLoss="7.74" rerouteNo="1" devices="tripinfo_motorcycle131 routing_motorcycle131" vType="motorcycle_motorcycle" speedFactor="1.01" vaporized=""/>
    <tripinfo id="motorcycle95" depart="77.00" departLane="-424014436#2_0" departPos="2.30" departSpeed="13.89" departDelay="0.17" arrival="137.00" arrivalLane="-424014390_0" arrivalPos="41.07" arrivalSpeed="14.54" duration="60.00" routeLength="748.82" waitingTime="4.00" waitingCount="1" stopTime="0.00" timeLoss="14.42" rerouteNo="1" devices="tripinfo_motorcycle95 routing_motorcycle95" vType="motorcycle_motorcycle" speedFactor="1.10" vaporized=""/>
    <tripinfo id="truck48" depart="21.00" departLane="44316349_0" departPos="7.20" departSpeed="27.78" departDelay="0.85" arrival="138.00" arrivalLane="169413583#1_0" arrivalPos="6.84" arrivalSpeed="7.33" duration="117.00" routeLength="1263.33" waitingTime="3.00" waitingCount="1" stopTime="0.00" timeLoss="29.76" rerouteNo="1" devices="tripinfo_truck48 routing_truck48" vType="truck_truck" speedFactor="1.05" vaporized=""/>
    <tripinfo id="motorcycle60" depart="49.00" departLane="-424036574_0" departPos="2.30" departSpeed="13.02" departDelay="0.48" arrival="140.00" arrivalLane="-167468618#1_0" arrivalPos="119.12" arrivalSpeed="11.96" duration="91.00" routeLength="1081.36" waitingTime="0.00" waitingCount="0" stopTime="0.00" timeLoss="20.04" rerouteNo="1" devices="tripinfo_motorcycle60 routing_motorcycle60" vType="motorcycle_motorcycle" speedFactor="0.94" vaporized=""/>
    <tripinfo id="motorcycle10" depart="9.00" departLane="-169413618#9_0" departPos="2.30" departSpeed="11.53" departDelay="0.91" arrival="141.00" arrivalLane="-265763297#5_0" arrivalPos="14.87" arrivalSpeed="11.68" duration="132.00" routeLength="1830.92" waitingTime="1.00" waitingCount="1" stopTime="0.00" timeLoss="30.36" rerouteNo="1" devices="tripinfo_motorcycle10 routing_motorcycle10" vType="motorcycle_motorcycle" speedFactor="0.99" vaporized=""/>
    <tripinfo id="veh223" depart="63.00" departLane="-421290126#6_0" departPos="5.10" departSpeed="14.12" departDelay="0.60" arrival="141.00" arrivalLane="-421280704#0_0" arrivalPos="116.22" arrivalSpeed="14.09" duration="78.00" routeLength="840.31" waitingTime="2.00" waitingCount="1" stopTime="0.00" timeLoss="17.60" rerouteNo="1" devices="tripinfo_veh223 routing_veh223" vType="veh_passenger" speedFactor="1.04" vaporized=""/>
    <tripinfo id="truck34" depart="15.00" departLane="37222913#2_2" departPos="1.97" departSpeed="0.00" departDelay="0.73" arrival="141.00" arrivalLane="664985709#1_0" arrivalPos="57.91" arrivalSpeed="21.89" duration="126.00" routeLength="2018.27" waitingTime="5.00" waitingCount="2" stopTime="0.00" timeLoss="53.21" rerouteNo="1" devices="tripinfo_truck34 routing_truck34" vType="truck_truck" speedFactor="1.02" vaporized=""/>
    <tripinfo id="motorcycle36" depart="30.00" departLane="-718260926#2_0" departPos="2.30" departSpeed="14.31" departDelay="0.89" arrival="144.00" arrivalLane="1306348848_0" arrivalPos="108.05" arrivalSpeed="12.68" duration="114.00" routeLength="1519.76" waitingTime="0.00" waitingCount="0" stopTime="0.00" timeLoss="33.19" rerouteNo="1" devices="tripinfo_motorcycle36 routing_motorcycle36" vType="motorcycle_motorcycle" speedFactor="1.03" vaporized=""/>
    <tripinfo id="motorcycle77" depart="63.00" departLane="38116079#0_0" departPos="2.30" departSpeed="13.86" departDelay="0.73" arrival="146.00" arrivalLane="-1537097127_0" arrivalPos="40.92" arrivalSpeed="12.85" duration="83.00" routeLength="868.69" waitingTime="1.00" waitingCount="1" stopTime="0.00" timeLoss="17.11" rerouteNo="1" devices="tripinfo_motorcycle77 routing_motorcycle77" vType="motorcycle_motorcycle" speedFactor="1.00" vaporized=""/>
    <tripinfo id="motorcycle132" depart="107.00" departLane="-1253576942_0" departPos="2.30" departSpeed="13.89" departDelay="0.25" arrival="146.00" arrivalLane="423557017#0_0" arrivalPos="53.89" arrivalSpeed="13.26" duration="39.00" routeLength="371.61" waitingTime="0.00" waitingCount="0" stopTime="0.00" timeLoss="11.47" rerouteNo="1" devices="tripinfo_motorcycle132 routing_motorcycle132" vType="motorcycle_motorcycle" speedFactor="1.12" vaporized=""/>
    <tripinfo id="veh45" depart="13.00" departLane="1252735454_0" departPos="5.10" departSpeed="13.89" departDelay="0.41" arrival="147.00" arrivalLane="722082934#1_1" arrivalPos="18.43" arrivalSpeed="17.38" duration="134.00" routeLength="2126.25" waitingTime="0.00" waitingCount="0" stopTime="0.00" timeLoss="21.07" rerouteNo="1" devices="tripinfo_veh45 routing_veh45" vType="veh_passenger" speedFactor="1.10" vaporized=""/>
    <tripinfo id="veh5" depart="2.00" departLane="80958874#15_3" departPos="2.40" departSpeed="16.51" departDelay="0.60" arrival="148.00" arrivalLane="296963059#0_0" arrivalPos="264.72" arrivalSpeed="26.73" duration="146.00" routeLength="2641.72" waitingTime="3.00" waitingCount="1" stopTime="0.00" timeLoss="39.24" rerouteNo="1" devices="tripinfo_veh5 routing_veh5" vType="veh_passenger" speedFactor="0.96" vaporized=""/>
    <tripinfo id="veh192" depart="54.00" departLane="45323270#6_0" departPos="5.10" departSpeed="13.89" departDelay="0.27" arrival="148.00" arrivalLane="288500048#1_0" arrivalPos="35.88" arrivalSpeed="13.86" duration="94.00" routeLength="1347.47" waitingTime="0.00" waitingCount="0" stopTime="0.00" timeLoss="26.67" rerouteNo="1" devices="tripinfo_veh192 routing_veh192" vType="veh_passenger" speedFactor="1.24" vaporized=""/>
    <tripinfo id="motorcycle111" depart="93.00" departLane="421287872#2_0" departPos="2.30" departSpeed="12.81" departDelay="3.24" arrival="149.00" arrivalLane="-169002217#10_0" arrivalPos="6.95" arrivalSpeed="10.97" duration="56.00" routeLength="603.60" waitingTime="0.00" waitingCount="0" stopTime="0.00" timeLoss="7.78" rerouteNo="1" devices="tripinfo_motorcycle111 routing_motorcycle111" vType="motorcycle_motorcycle" speedFactor="0.92" vaporized=""/>
    <tripinfo id="veh13" depart="4.00" departLane="1076002271#1_0" departPos="5.10" departSpeed="13.89" departDelay="0.36" arrival="150.00" arrivalLane="697289106#5_0" arrivalPos="70.92" arrivalSpeed="15.37" duration="146.00" routeLength="1657.02" waitingTime="0.00" waitingCount="0" stopTime="0.00" timeLoss="31.31" rerouteNo="1" devices="tripinfo_veh13 routing_veh13" vType="veh_passenger" speedFactor="1.13" vaporized=""/>
    <tripinfo id="veh177" depart="50.00" departLane="-423593946#3_0" departPos="5.10" departSpeed="13.41" departDelay="0.47" arrival="151.00" arrivalLane="1255149667#1_0" arrivalPos="30.80" arrivalSpeed="11.47" duration="101.00" routeLength="1030.98" waitingTime="0.00" waitingCount="0" stopTime="0.00" timeLoss="27.59" rerouteNo="1" devices="tripinfo_veh177 routing_veh177" vType="veh_passenger" speedFactor="0.97" vaporized=""/>
    <tripinfo id="motorcycle148" depart="120.00" departLane="1290450967#1_0" departPos="2.30" departSpeed="27.78" departDelay="0.31" arrival="152.00" arrivalLane="37222906#1_0" arrivalPos="26.09" arrivalSpeed="27.75" duration="32.00" routeLength="802.72" waitingTime="0.00" waitingCount="0" stopTime="0.00" timeLoss="4.05" rerouteNo="1" devices="tripinfo_motorcycle148 routing_motorcycle148" vType="motorcycle_motorcycle" speedFactor="1.07" vaporized=""/>
    <tripinfo id="motorcycle43" depart="35.00" departLane="28121291#2_0" departPos="2.30" departSpeed="14.24" departDelay="0.23" arrival="153.00" arrivalLane="311742565#3_1" arrivalPos="76.90" arrivalSpeed="23.89" duration="118.00" routeLength="1329.51" waitingTime="20.00" waitingCount="1" stopTime="0.00" timeLoss="38.72" rerouteNo="1" devices="tripinfo_motorcycle43 routing_motorcycle43" vType="motorcycle_motorcycle" speedFactor="0.90" vaporized=""/>
    <tripinfo id="motorcycle46" depart="42.00" departLane="-1057070279_0" departPos="2.30" departSpeed="3.34" departDelay="4.80" arrival="153.00" arrivalLane="-152784363#0_1" arrivalPos="21.97" arrivalSpeed="11.19" duration="111.00" routeLength="1111.14" waitingTime="10.00" waitingCount="1" stopTime="0.00" timeLoss="38.64" rerouteNo="1" devices="tripinfo_motorcycle46 routing_motorcycle46" vType="motorcycle_motorcycle" speedFactor="0.85" vaporized=""/>
    <tripinfo id="motorcycle90" depart="73.00" departLane="-45323263#0_0" departPos="2.30" departSpeed="13.89" departDelay="0.22" arrival="154.00" arrivalLane="-288500048#4_0" arrivalPos="20.43" arrivalSpeed="14.25" duration="81.00" routeLength="1104.90" waitingTime="0.00" waitingCount="0" stopTime="0.00" timeLoss="13.88" rerouteNo="1" devices="tripinfo_motorcycle90 routing_motorcycle90" vType="motorcycle_motorcycle" speedFactor="1.09" vaporized=""/>
    <tripinfo id="truck28" depart="12.00" departLane="-38116076_0" departPos="7.20" departSpeed="13.89" departDelay="0.25" arrival="155.00" arrivalLane="1071444947_0" arrivalPos="78.42" arrivalSpeed="2.42" duration="143.00" routeLength="1187.72" waitingTime="0.00" waitingCount="0" stopTime="0.00" timeLoss="33.63" rerouteNo="1" devices="tripinfo_truck28 routing_truck28" vType="truck_truck" speedFactor="1.04" vaporized=""/>
    <tripinfo id="motorcycle143" depart="116.00" departLane="-169421699#4_0" departPos="2.30" departSpeed="7.40" departDelay="0.36" arrival="158.00" arrivalLane="169421707#1_0" arrivalPos="62.89" arrivalSpeed="13.75" duration="42.00" routeLength="412.84" waitingTime="0.00" waitingCount="0" stopTime="0.00" timeLoss="8.58" rerouteNo="1" devices="tripinfo_motorcycle143 routing_motorcycle143" vType="motorcycle_motorcycle" speedFactor="1.00" vaporized=""/>
    <tripinfo id="motorcycle161" depart="131.00" departLane="1123830771#1_0" departPos="2.30" departSpeed="12.70" departDelay="0.80" arrival="158.00" arrivalLane="276169620#0_0" arrivalPos="2.29" arrivalSpeed="9.39" duration="27.00" routeLength="213.81" waitingTime="0.00" waitingCount="0" stopTime="0.00" timeLoss="7.41" rerouteNo="1" devices="tripinfo_motorcycle161 routing_motorcycle161" vType="motorcycle_motorcycle" speedFactor="0.91" vaporized=""/>
    <tripinfo id="truck171" depart="72.00" departLane="423557015#2_0" departPos="7.20" departSpeed="10.80" departDelay="0.22" arrival="158.00" arrivalLane="-421289067#1_0" arrivalPos="35.85" arrivalSpeed="13.02" duration="86.00" routeLength="976.44" waitingTime="0.00" waitingCount="0" stopTime="0.00" timeLoss="15.01" rerouteNo="1" devices="tripinfo_truck171 routing_truck171" vType="truck_truck" speedFactor="1.04" vaporized=""/>
    <tripinfo id="bus6" depart="6.00" departLane="164910162#3_0" departPos="11.31" departSpeed="0.00" departDelay="0.97" arrival="159.00" arrivalLane="1253501577_0" arrivalPos="24.75" arrivalSpeed="13.75" duration="153.00" routeLength="1602.64" waitingTime="2.00" waitingCount="1" stopTime="0.00" timeLoss="47.30" rerouteNo="1" devices="tripinfo_bus6 routing_bus6" vType="bus_bus" speedFactor="1.00" vaporized=""/>