<?xml version="1.0" encoding="UTF-8"?>

<!-- generated on 2026-07-21T18:17:51.913041+05:30 by Eclipse SUMO sumo 1.27.1
<sumoConfiguration xmlns:xsi="http://www.w3.org/2001/XMLSchema-instance" xsi:noNamespaceSchemaLocation="http://sumo.dlr.de/xsd/sumoConfiguration.xsd">

    <input>
        <net-file value="C:\Users\sudha\Sumo\2026-07-21-18-16-49\osm.net.xml.gz"/>
        <route-files value="C:\Users\sudha\Sumo\2026-07-21-18-16-49\trips.trips.xml"/>
        <additional-files value="C:\Users\sudha\Sumo\2026-07-21-18-16-49\osm_stops.add.xml"/>
    </input>

    <output>
        <vehroute-output value="C:\Users\sudha\Sumo\2026-07-21-18-16-49\vehroutes.xml"/>
        <stop-output value="C:\Users\sudha\Sumo\2026-07-21-18-16-49\stopinfos.xml"/>
    </output>

    <time>
        <begin value="0.0"/>
    </time>

    <processing>
        <ignore-route-errors value="true"/>
        <time-to-teleport.disconnected value="0"/>
        <default.departspeed value="0"/>
    </processing>

    <routing>
        <device.rerouting.adaptation-interval value="0"/>
    </routing>

    <report>
        <aggregate-warnings value="5"/>
        <error-log value="C:\Users\sudha\Sumo\2026-07-21-18-16-49\trips.trips.xml.errorlog"/>
        <no-step-log value="true"/>
    </report>

</sumoConfiguration>
-->

<routes xmlns:xsi="http://www.w3.org/2001/XMLSchema-instance" xsi:noNamespaceSchemaLocation="http://sumo.dlr.de/xsd/routes_file.xsd">
    <vehicle id="14_bus_966EX:0" type="pt_bus" depart="119.00" departLane="0" arrival="167.00">
        <route edges="176466583"/>
        <stop busStop="938635590" duration="30.00"/>
    </vehicle>

    <vehicle id="5_bus_347:0" type="pt_bus" depart="27.00" departLane="0" arrival="197.00">
        <route edges="76834871 211191578 852601469#0 852601469#1 852601469#2 852601468#0 852601468#1 852601468#2"/>
        <stop busStop="7242732172" duration="30.00"/>
        <stop busStop="6497707582" duration="30.00"/>
    </vehicle>

    <vehicle id="0_bus_984A:0" type="pt_bus" depart="3.00" departLane="0" arrival="349.00">
        <route edges="28746245 1457651694 676708027 676708027-AddedOffRampEdge 1451903122 570427347 43359324 565938868#0-AddedOnRampEdge 565938868#0 677074043 1420705472#1 1420705472#2 1420705472#3 1420705472#4 1420705475 565938871#2 565938871#3 565938871#4 565938871#5 565938870 44316345 563679828 44316346"/>
        <stop busStop="4819437823" duration="30.00"/>
        <stop busStop="5426388566" duration="30.00"/>
        <stop busStop="6112155497" duration="30.00"/>
    </vehicle>

    <vehicle id="1_bus_479A:0" type="pt_bus" depart="15.00" departLane="0" arrival="390.00">
        <route edges="28746245 1457651694 676708027 676708027-AddedOffRampEdge 1451903122 570427347 43359324 565938868#0-AddedOnRampEdge 565938868#0 677074043 1420705472#1 1420705472#2 1420705472#3 1420705472#4 1420705475 565938871#2 565938871#3 565938871#4 565938871#5 565938870 44316345 563679828 44316346"/>
        <stop busStop="4819437823" duration="30.00"/>
        <stop busStop="5426388566" duration="30.00"/>
        <stop busStop="6112155497" duration="30.00"/>
    </vehicle>

    <vehicle id="27_bus_BPExp:0" type="pt_bus" depart="160.00" departLane="0" arrival="461.00">
        <route edges="679552303 1313465446 70258960#0 70258960#1 70258963#0 70258963#1 70258963#2 1491586817"/>
        <stop busStop="6362607175" duration="30.00"/>
        <stop busStop="6362085192" duration="30.00"/>
        <stop busStop="13669726310" duration="30.00"/>
    </vehicle>

    <vehicle id="37_bus_519:0" type="pt_bus" depart="227.00" departLane="0" arrival="505.00">
        <route edges="29534879 654175709#0 654175709#1 654175709#2 654175709#3 582367349#3 582367349#4 582367349#4-AddedOffRampEdge 80515440 583143702-AddedOnRampEdge 583143702 676708026#0 676708026#1 689446382 689446381 683766463 28616702#0 28616702#1 571249177#0 571249177#1 571168753#0 571168753#1 571168753#2 571168752 571168756 676708024"/>
        <stop busStop="5732543211" duration="30.00"/>
        <stop busStop="5541755269" duration="30.00"/>
        <stop busStop="6336918971" duration="30.00"/>
    </vehicle>

    <vehicle id="36_bus_578:0" type="pt_bus" depart="222.00" departLane="0" arrival="540.00">
        <route edges="28746245 1457651694 44315457#0 44315457#1 812690414 812690415#1 812690415#2 676708026#0 676708026#1 689446382 689446381 683766463 28616702#0 28616702#1 571249177#0 571249177#1 571168753#0 571168753#1 571168753#2 571168752 571168756 676708024"/>
        <stop busStop="4819437823" duration="30.00"/>
        <stop busStop="5541755269" duration="30.00"/>
        <stop busStop="6336918971" duration="30.00"/>
    </vehicle>

    <vehicle id="40_bus_611:0" type="pt_bus" depart="253.00" departLane="0" arrival="564.00">
        <route edges="28746245 1457651694 676708027 676708027-AddedOffRampEdge 1451903122 570427347 43359324 565938868#0-AddedOnRampEdge 565938868#0 677074043 1420705472#1 1420705472#2 1420705472#3 1420705472#4 1420705475 565938871#2 565938871#3 565938871#4 565938871#5 565938870 44316345 563679828 44316346"/>
        <stop busStop="5426388566" duration="30.00"/>
        <stop busStop="6112155497" duration="30.00"/>
    </vehicle>

    <vehicle id="72_bus_966:0" type="pt_bus" depart="505.00" departLane="0" arrival="577.00">
        <route edges="584241789#1 1203083884 1203083883#1 1203083883#3 176466591#1 176466591#2 176466591#3 176466591#4 176466591#5"/>
        <stop busStop="938635417" duration="30.00"/>
    </vehicle>

    <vehicle id="38_bus_427:0" type="pt_bus" depart="227.00" departLane="0" arrival="581.00">
        <route edges="584241789#1 1203083884 1203083883#1 1203083883#3 176466591#1 176466591#2 176466591#3 176466591#4 176466591#5 584241787 1451897494-AddedOnRampEdge 1451897494 1451897494-AddedOffRampEdge 77015779#1 715377036-AddedOnRampEdge 715377036 77349488#1 77349488#2 77349488#3 77349488#4 77349488#5 584241782 37751254#0 37751254#1 37751254#2 760525680 566680381-AddedOnRampEdge 566680381 1313030094 39013521 1313030095 586156360#1 586156360#2 586156360#3 566009660#0 566009660#1 566009660#3"/>
        <stop busStop="938635417" duration="30.00"/>
        <stop busStop="5584872921" duration="30.00"/>
        <stop busStop="5426389543" duration="30.00"/>
        <stop busStop="5430723253" duration="30.00"/>
    </vehicle>

    <vehicle id="41_bus_727:0" type="pt_bus" depart="275.00" departLane="0" arrival="585.00">
        <route edges="28746245 1457651694 676708027 676708027-AddedOffRampEdge 1451903122 570427347 43359324 565938868#0-AddedOnRampEdge 565938868#0 677074043 1420705472#1 1420705472#2 1420705472#3 1420705472#4 1420705475 565938871#2 565938871#3 565938871#4 565938871#5 565938870 44316345 563679828 44316346"/>
        <stop busStop="4819437823" duration="30.00"/>
        <stop busStop="5426388566" duration="30.00"/>
    </vehicle>

    <vehicle id="74_bus_966:1" type="pt_bus" depart="517.00" departLane="1" arrival="591.00">
        <route edges="80439704#0 80439704#1 80439704#2 80439704#3 80439704#4 176466571 1076237280#2 176466583"/>
        <stop busStop="938635590" duration="30.00"/>
    </vehicle>

    <vehicle id="28_bus_BPExp:1" type="pt_bus" depart="165.00" departLane="0" arrival="608.00">
        <route edges="1491586823 70258954#1 70258954#3 70258954#4 70258954#5 555197204 679512999-AddedOnRampEdge 679512999 679512999-AddedOffRampEdge 679512998 679512997 1313465445 70258948#0 70258948#1 70258948#2"/>
        <stop busStop="838835305" duration="30.00"/>
        <stop busStop="5121928130" duration="30.00"/>
        <stop busStop="6362085190" duration="30.00"/>
        <stop busStop="6362085189" duration="30.00"/>
    </vehicle>

    <vehicle id="44_bus_450:0" type="pt_bus" depart="326.00" departLane="0" arrival="612.00">
        <route edges="-653235647#0 -38116089#12 -38116089#11 -38116089#10 -38116089#9 -38116089#8 -38116089#7 -38116090#4 -1076000734 -424007912#2 -424007912#1 -1202758360 -424014386 168275206#0 168275206#1 -424014365#6 -424014365#5 -424014365#4 -424014365#3 1306749688 -38116089#1 652047004 583620105#1 583620105#2 583620105#3 583620105#4 583620105#5 168381546#0 168381546#1 44317041#0 44317041#1 44317041#2 44317041#3 44317041#4 44317041#5"/>
        <stop busStop="-6122143946" duration="30.00"/>
        <stop busStop="6203988021" duration="30.00"/>
    </vehicle>

    <vehicle id="45_bus_413:0" type="pt_bus" depart="331.00" departLane="0" arrival="646.00">
        <route edges="584241789#1 1203083884 1203083883#1 1203083883#3 176466591#1 176466591#2 176466591#3 176466591#4 176466591#5 584241787 1451897494-AddedOnRampEdge 1451897494 1451897494-AddedOffRampEdge 77015779#1 715377036-AddedOnRampEdge 715377036 77349488#1 77349488#2 77349488#3 77349488#4 77349488#5 584241782 37751254#0 37751254#1 37751254#2 760525680 566680381-AddedOnRampEdge 566680381 1313030094 39013521 1313030095 566680382 1313027075"/>
        <stop busStop="938635417" duration="30.00"/>
        <stop busStop="5584872921" duration="30.00"/>
        <stop busStop="5585958328" duration="30.00"/>
    </vehicle>

    <vehicle id="42_bus_544:0" type="pt_bus" depart="303.00" departLane="0" arrival="647.00">
        <route edges="28746245 1457651694 676708027 676708027-AddedOffRampEdge 1451903122 570427347 43359324 565938868#0-AddedOnRampEdge 565938868#0 677074043 1420705472#1 1420705472#2 1420705472#3 1420705472#4 1420705475 565938871#2 -265763304#3 26664728#3 26664728#4 26664728#5 26664728#6 26664728#7 26664728#8 686625277 686625276 732001899#0 565347502 265903505 590522606#0 265940883#0 265940883#1 265940883#2"/>
        <stop busStop="4819437823" duration="30.00"/>
        <stop busStop="5426388566" duration="30.00"/>
    </vehicle>

    <vehicle id="53_bus_427:1" type="pt_bus" depart="371.00" departLane="0" arrival="673.00">
        <route edges="566680388#0 566680388#1 566680388#2 566680388#3 566680388#4 586156365#1 586156365#2 586156365#3 44317039 39013518 312031900 37751255#0 37751255#1 584241795#0 584241795#1 584241794 202645529#0 202645529#1 202645529#2 1312806548 696618571#1 80439704#0 80439704#1 80439704#2 80439704#3 80439704#4 176466571 1076237280#2 176466583"/>
        <stop busStop="5426388558" duration="30.00"/>
        <stop busStop="5584870725" duration="30.00"/>
        <stop busStop="938635590" duration="30.00"/>
    </vehicle>

    <vehicle id="47_bus_479:0" type="pt_bus" depart="340.00" departLane="0" arrival="699.00">
        <route edges="28746245 1457651694 676708027 676708027-AddedOffRampEdge 1451903122 570427347 43359324 565938868#0-AddedOnRampEdge 565938868#0 677074043 1420705472#1 1420705472#2 1420705472#3 1420705472#4 1420705475 565938871#2 565938871#3 565938871#4 565938871#5 565938870 44316345 563679828 44316346"/>
        <stop busStop="4819437823" duration="30.00"/>
        <stop busStop="5426388566" duration="30.00"/>
    </vehicle>

    <vehicle id="54_bus_418A:0" type="pt_bus" depart="381.00" departLane="0" arrival="706.00">
        <route edges="77339656#11 77339656#12 77339656#13 680551215 561759719#0 561759719#1 561759719#2 561759719#3 561759719#4 678397108 678397106 678397105 555242574-AddedOnRampEdge 555242574 77349464#0 77349464#1 77349464#1-AddedOffRampEdge 77349464#2 562479736#0 562479736#1 562479736#3 562479736#4 562479736#5-AddedOnRampEdge 562479736#5 562479736#7 585446277#1"/>
        <stop busStop="6371764317" duration="30.00"/>
        <stop busStop="5342182750" duration="30.00"/>
        <stop busStop="5342182505" duration="30.00"/>
    </vehicle>

    <vehicle id="63_bus_460:0" type="pt_bus" depart="422.00" departLane="0" arrival="711.00">
        <route edges="662141606#0 662141606#4 662141606#4-AddedOffRampEdge 662141606#5 662141606#6 39013515#0 39013515#1 760525680 566680381-AddedOnRampEdge 566680381 1313030094 39013521 1313030095 566680382 1313027075"/>
        <stop busStop="6198752458" duration="30.00"/>
        <stop busStop="910451189" duration="30.00"/>
        <stop busStop="5585958328" duration="30.00"/>
    </vehicle>

    <vehicle id="55_bus_405:0" type="pt_bus" depart="386.00" departLane="0" arrival="730.00">
        <route edges="77339656#11 77339656#12 77339656#13 680551215 561759719#0 561759719#1 561759719#2 561759719#3 561759719#4 678397108 678397106 678397105 555242574-AddedOnRampEdge 555242574 77349464#0 77349464#1 77349464#1-AddedOffRampEdge 77349464#2 562479736#0 562479736#1 562479736#3 562479736#4"/>
        <stop busStop="6371764317" duration="30.00"/>
        <stop busStop="5273109722" duration="30.00"/>
        <stop busStop="5342182750" duration="30.00"/>
        <stop busStop="5342182505" duration="30.00"/>
    </vehicle>

    <vehicle id="2_bus_166:0" type="pt_bus" depart="15.00" departLane="0" arrival="734.00">
        <route edges="584241789#1 1203083884 1203083883#1 1203083883#3 176466591#1 176466591#2 176466591#3 176466591#4 176466591#5 584241784#0 584241793#0 584241793#4 1090402162 77339656#0 77339656#1 77339656#4 77339656#5 77339656#6 77339656#11 77339656#12 77339656#13 680551215 561759719#0 561759719#1 561759719#2 561759719#3 561759719#4 678397108 678397107#0 678397107#1 561759718#0 561759718#1 561759718#2 561759718#3 561759718#4 561759718#5 585446272#0 585446285#0 585446285#1 585446285#2 585446285#3 585446284#0 176492654#2 176492654#3 176492654#4 176492654#5 176492654#6 176492654#7 176492654#8 176492654#11 176492654#12 176492654#13 176492654#14 176492654#15 176492654#18 176492654#19 1187268491#0 1187268491#1 1187268491#2 1187268490 24577364#0 24577364#1 1077595194 -24577367#8 -24577367#7 -24577367#6 -24577367#4 -24577367#2 -24577367#1 -24577367#0 1077595195#1 732001894 581989172#0 581989172#1 604050032 24577379#0 24577379#1 24577379#2 582461174#0 582461174#1 582461174#2 296963058#0 296963058#1 296963058#2 296963058#3 296963058#4 296963058#5 296963058#6 296963058#7"/>
        <stop busStop="938635417" duration="30.00"/>
        <stop busStop="6371764317" duration="30.00"/>
        <stop busStop="5273109722" duration="30.00"/>
        <stop busStop="5426390776" duration="30.00"/>
        <stop busStop="5426390921" duration="30.00"/>
        <stop busStop="355435748" duration="30.00"/>
        <stop busStop="5732544103" duration="30.00"/>
    </vehicle>

    <vehicle id="52_bus_543A:0" type="pt_bus" depart="368.00" departLane="0" arrival="736.00">
        <route edges="28746245 1457651694 676708027 676708027-AddedOffRampEdge 1451903122 570427347 43359324 565938868#0-AddedOnRampEdge 565938868#0 677074043 1420705472#1 1420705472#2 1420705472#3 1420705472#4 1420705475 565938871#2"/>
        <stop busStop="4819437823" duration="30.00"/>
        <stop busStop="5426388566" duration="30.00"/>
    </vehicle>

    <vehicle id="67_bus_Gurgaon_→_Anand_Vihar_ISBT:0" type="pt_bus" depart="465.00" departLane="0" arrival="736.00">
        <route edges="28746245 1457651694 676708027 676708027-AddedOffRampEdge 1451903122 570427347 43359324 565938868#0-AddedOnRampEdge 565938868#0 677074043 1420705472#1 1420705472#2 1420705472#3 1420705472#4 26664728#0 26664728#1 26664728#2 26664728#3 26664728#4 26664728#5 26664728#6 26664728#7 26664728#8 686625277 686625276 732001899#0 565347502 563679829#0 563679829#1-AddedOnRampEdge 563679829#1 563679829#2 44316346"/>
        <stop busStop="6112155497" duration="30.00"/>
    </vehicle>

    <vehicle id="82_bus_443:0" type="pt_bus" depart="593.00" departLane="0" arrival="768.00">
        <route edges="76834871 211191578 852601469#0 852601469#1 852601469#2 852601468#0 852601468#1 852601468#2"/>
        <stop busStop="7242732172" duration="30.00"/>
        <stop busStop="6497707582" duration="30.00"/>
    </vehicle>

    <vehicle id="50_bus_323:0" type="pt_bus" depart="353.00" departLane="0" arrival="780.00">
        <route edges="28746245 1457651694 676708027 676708027-AddedOffRampEdge 1451903122 570427347 43359324 565938868#0-AddedOnRampEdge 565938868#0 677074043 1420705472#1 1420705472#2 1420705472#3 1420705472#4 1420705475 565938871#2 565938871#3 565938871#4 565938871#5 565938870 44316345 563679828 44316346"/>
        <stop busStop="4819437823" duration="30.00"/>
        <stop busStop="5426388566" duration="30.00"/>
        <stop busStop="6112155497" duration="30.00"/>
    </vehicle>

    <vehicle id="51_bus_(-)_TMS:0" type="pt_bus" depart="362.00" departLane="0" arrival="818.00">
        <route edges="28746245 1457651694 676708027 676708027-AddedOffRampEdge 1451903122 570427347 43359324 565938868#0-AddedOnRampEdge 565938868#0 677074043 1420705472#1 1420705472#2 1420705472#3 1420705472#4 1420705475 565938871#2 565938871#3 565938871#4 565938871#5 565938870 44316345 563679828 44316346"/>
        <stop busStop="4819437823" duration="30.00"/>
        <stop busStop="5426388566" duration="30.00"/>
        <stop busStop="6112155497" duration="30.00"/>
    </vehicle>

    <vehicle id="68_bus_624A:0" type="pt_bus" depart="483.00" departLane="0" arrival="826.00">
        <route edges="28746245 1457651694 44315457#0 44315457#1 812690414 812690415#1 812690415#2 676708026#0 676708026#1 689446382 689446381"/>
        <stop busStop="4819437823" duration="30.00"/>
        <stop busStop="5541755269" duration="30.00"/>
    </vehicle>

    <vehicle id="60_bus_442:0" type="pt_bus" depart="406.00" departLane="0" arrival="857.00">
        <route edges="28746245 1457651694 676708027 676708027-AddedOffRampEdge 1451903122 570427347 43359324 565938868#0-AddedOnRampEdge 565938868#0 677074043 1420705472#1 1420705472#2 1420705472#3 1420705472#4 1420705475 565938871#2 565938871#3 565938871#4 565938871#5 565938870 44316345 563679828 44316346"/>
        <stop busStop="4819437823" duration="30.00"/>
        <stop busStop="5426388566" duration="30.00"/>
    </vehicle>

    <vehicle id="61_bus_724:0" type="pt_bus" depart="412.00" departLane="0" arrival="896.00">
        <route edges="28746245 1457651694 676708027 676708027-AddedOffRampEdge 1451903122 570427347 43359324 565938868#0-AddedOnRampEdge 565938868#0 677074043 1420705472#1 1420705472#2 1420705472#3 1420705472#4 1420705475 565938871#2 565938871#3 565938871#4 565938871#5 565938870 44316345 563679828 44316346"/>
        <stop busStop="4819437823" duration="30.00"/>
        <stop busStop="5426388566" duration="30.00"/>
    </vehicle>

    <vehicle id="3_bus_166:1" type="pt_bus" depart="17.00" departLane="0" arrival="945.00">
        <route edges="680551206 680551212#0 680551212#1 680551212#2 296963059#0 296963059#1 296963059#2 1126646522#0 24577367#0 24577367#1 24577367#2 24577367#4 24577367#6 24577367#7 24577367#8 1126646523 783084113#1 783084113#2 732001895#0 732001905 1187268486 1187268489#0 1187268489#1 732001908#0 732001908#1 1187268492#1 80958874#0 80958874#1 80958874#2 80958874#5 80958874#6 80958874#7 80958874#8 80958874#9 80958874#10 80958874#11 80958874#12 80958874#13 80958874#14 80958874#15 730290863 24563348#0 24563348#1 24563348#3 24563348#4 24563348#7 24563348#8 24563348#9 24563348#9-AddedOffRampEdge 24563348#10 24563348#11 678397112 678397111#0 678397111#1 678397111#2 680551213 680551205 24563333#0 24563333#1 24563333#2 24563333#3 24563333#4 39013511#0 39013511#1 39013511#2 39013511#3 39013511#6 39013511#7 39013511#8 39013511#9 39013511#10 39013511#13 39013511#14 163778522#0 163778522#1 176466583"/>
        <stop busStop="6854465827" duration="30.00"/>
        <stop busStop="5426389916" duration="30.00"/>
        <stop busStop="7062645321" duration="30.00"/>
        <stop busStop="5426388555" duration="30.00"/>
        <stop busStop="7062680765" duration="30.00"/>
        <stop busStop="7062680768" duration="30.00"/>
        <stop busStop="7062680766" duration="30.00"/>
        <stop busStop="6372277578" duration="30.00"/>
        <stop busStop="6385492244" duration="30.00"/>
        <stop busStop="938635590" duration="30.00"/>
    </vehicle>

    <vehicle id="34_bus_534:0" type="pt_bus" depart="204.00" departLane="0" arrival="964.00">
        <route edges="37703539#0 37703539#2 37703539#4 37703539#5 37703539#6 37703539#8 37703539#9 37703539#10 37703539#12 37703539#13 25457965#0 -1308944423 39013523#2 39013523#3 39013523#4 39013523#5 39013523#6 39013523#7 70258965#0 70258965#1 70258965#2 70258965#3 170767287#0 170767287#1 170767287#2 170767287#3 77349489#1 77349489#2 77349489#3 77349489#4 77349489#5 77349489#6 1491586823 70258954#1 70258954#3 70258954#4 70258954#5 555197204 679512999-AddedOnRampEdge 679512999 679512999-AddedOffRampEdge 812684509 631795142 76834907#1 76834908 682971785 76834886#1 682971783 682971782 555197220#0 555197220#1 813012744"/>
        <stop busStop="5121928122" duration="30.00"/>
        <stop busStop="5121928125" duration="30.00"/>
        <stop busStop="5121928128" duration="30.00"/>
        <stop busStop="5121928130" duration="30.00"/>
        <stop busStop="7171446389" duration="30.00"/>
        <stop busStop="6396989742" duration="30.00"/>
    </vehicle>

    <vehicle id="35_bus_534A:0" type="pt_bus" depart="218.00" departLane="1" arrival="967.00">
        <route edges="37703539#0 37703539#2 37703539#4 37703539#5 37703539#6 37703539#8 37703539#9 37703539#10 37703539#12 37703539#13 25457965#0 -1308944423 39013523#2 39013523#3 39013523#4 39013523#5 39013523#6 39013523#7 70258965#0 70258965#1 70258965#2 70258965#3 170767287#0 170767287#1 170767287#2 170767287#3 77349489#1 77349489#2 77349489#3 77349489#4 77349489#5 77349489#6 1491586823 70258954#1 70258954#3 70258954#4 70258954#5 555197204 679512999-AddedOnRampEdge 679512999 679512999-AddedOffRampEdge 812684509 631795142 76834907#1 76834908 682971785 76834886#1 682971783 682971782 555197220#0 555197220#1 813012744"/>
        <stop busStop="5121928122" duration="30.00"/>
        <stop busStop="5121928125" duration="30.00"/>
        <stop busStop="5121928128" duration="30.00"/>
        <stop busStop="5121928130" duration="30.00"/>
        <stop busStop="7171446389" duration="30.00"/>
    </vehicle>

    <vehicle id="66_bus_543B:0" type="pt_bus" depart="441.00" departLane="0" arrival="974.00">
        <route edges="28746245 1457651694 676708027 676708027-AddedOffRampEdge 1451903122 570427347 43359324 565938868#0-AddedOnRampEdge 565938868#0 677074043 1420705472#1 1420705472#2 1420705472#3 1420705472#4 1420705475 565938871#2 565938871#3 565938871#4 565938871#5 565938870 44316345 563679828 44316346"/>
        <stop busStop="4819437823" duration="30.00"/>
        <stop busStop="5426388566" duration="30.00"/>
        <stop busStop="6112155497" duration="30.00"/>
    </vehicle>

    <vehicle id="48_bus_450:1" type="pt_bus" depart="346.00" departLane="0" arrival="1013.00">
        <route edges="80958874#0 80958874#1 80958874#2 80958874#5 80958874#6 80958874#7 80958874#8 80958874#9 80958874#10 80958874#11 80958874#12 80958874#13 80958874#14 80958874#15 730290860#0 730290860#4 730290860#5 673792811#0 673792811#1 673792810#0 673792810#1 673792810#2 673792810#3 673792810#4 611866613#0 611866617#1 561929985#0 561929985#1 1306337530 1306337529#0 1306337529#1 176492656 1516045288 176492655#1 614072012#0 614072012#1 563791819#0 563791819#1 563791819#2 563791819#3 563791819#4 563791819#5 563791819#6 563791819#7 563791819#8 563791819#9 563791819#10 563791819#11 563791822#0 563791822#1 563679829#0 563679829#1-AddedOnRampEdge 563679829#1 563679829#2 44316346"/>
        <stop busStop="7019144405" duration="30.00"/>
        <stop busStop="5426388555" duration="30.00"/>
        <stop busStop="5432771968" duration="30.00"/>
        <stop busStop="2578295203" duration="30.00"/>
        <stop busStop="6786032368" duration="30.00"/>
        <stop busStop="5431738836" duration="30.00"/>
        <stop busStop="1694776065" duration="30.00"/>
        <stop busStop="6112155497" duration="30.00"/>
    </vehicle>

    <vehicle id="43_bus_469:0" type="pt_bus" depart="321.00" departLane="0" arrival="1068.00">
        <route edges="566680388#0 566680388#1 566680388#2 566680388#3 566680388#4 586156365#1 586156365#2 586156365#3 44317039 39013518 312031900 37751255#0 37751255#1 584241795#0 584241795#1 657413479 581239050#0 581239050#1 581239050#2 555197196#0 555197196#1 555197196#2 555197196#3 555197196#4 39013523#1 39013523#2 39013523#3 39013523#4 39013523#5 39013523#6 39013523#7 70258965#0 70258965#1 70258965#2 70258965#3 170767287#0 170767287#1 170767287#2 170767287#3 77349489#1 77349489#2 77349489#3 77349489#4 77349489#5 77349489#6 1491586823 70258954#1 70258954#3 70258954#4 70258954#5 555197204 679512999-AddedOnRampEdge 679512999 679512999-AddedOffRampEdge 812684509 631795142 76834907#1 76834908 682971785 76834886#1 682971783 682971782 555197220#0 555197220#1 813012744"/>
        <stop busStop="5426388558" duration="30.00"/>
        <stop busStop="5121928122" duration="30.00"/>
        <stop busStop="5121928125" duration="30.00"/>
        <stop busStop="5121928128" duration="30.00"/>
        <stop busStop="5121928130" duration="30.00"/>
        <stop busStop="6396989742" duration="30.00"/>
    </vehicle>

    <vehicle id="9_bus_623:0" type="pt_bus" depart="58.00" departLane="0" arrival="1134.00">
        <route edges="28746245 1457651694 676708027 676708027-AddedOffRampEdge 1451903122 570427347 43359324 565938868#0-AddedOnRampEdge 565938868#0 677074043 1420705472#1 1420705472#2 1420705472#3 1420705472#4 1420705475 565938871#2 -265763304#3 26664728#3 26664728#4 26664728#5 26664728#6 26664728#7 26664728#8 686625277 686625276 169413610 265903506#0 265903506#2 265903506#3 265903506#4 265903506#5 265903506#6 265903506#7 265903506#8 265903506#9 265903506#10 265903506#11 265903506#12 265903506#13 265903506#14 265903506#15 265903506#16 265903506#17 265903506#18 265903506#19 265903506#20 265903506#21 265903506#22 614072011 614072017#0 614072017#1-AddedOnRampEdge 614072017#1 614072017#2 176492657 1516045286 561929986#0 561929986#1 561929986#3 561929986#4 611866622#0 611866615#2 583910213#0 583910213#1 583910213#2 583910213#3 1108471058 673792809#0 673792809#1 673792808#1 585446283#0 176492654#2 176492654#3 176492654#4 176492654#5 176492654#6 176492654#7 176492654#8 176492654#11 176492654#12 176492654#13 176492654#14 176492654#15 176492654#18 176492654#19 1187268491#0 1187268491#1 1187268491#2 1187268490 24577364#0 24577364#1 1077595194 -24577367#8 -24577367#7 -24577367#6 -24577367#4 -24577367#2 -24577367#1 -24577367#0 1077595195#1 732001894 581989172#0 581989172#1 604050032 24577379#0 24577379#1 24577379#2 582461174#0 582461174#1 582461174#2 296963058#0 296963058#1 296963058#2 296963058#3 296963058#4 296963058#5 296963058#6 296963058#7"/>
        <stop busStop="4819437823" duration="30.00"/>
        <stop busStop="5426388566" duration="30.00"/>
        <stop busStop="6766175603" duration="30.00"/>
        <stop busStop="6766995948" duration="30.00"/>
        <stop busStop="5701997798" duration="30.00"/>
        <stop busStop="6449436641" duration="30.00"/>
        <stop busStop="2578295201" duration="30.00"/>
        <stop busStop="7655631092" duration="30.00"/>
        <stop busStop="5426390921" duration="30.00"/>
        <stop busStop="7655631102" duration="30.00"/>
        <stop busStop="355435748" duration="30.00"/>
        <stop busStop="5732544103" duration="30.00"/>
    </vehicle>

    <vehicle id="62_bus_(-)_OMS:0" type="pt_bus" depart="418.00" departLane="0" arrival="1140.00">
        <route edges="566680388#0 566680388#1 566680388#2 566680388#3 566680388#4 586156365#1 586156365#2 586156365#3 44317039 39013518 312031900 37751255#0 37751255#1 584241795#0 584241795#1 657413479 581239050#0 581239050#1 581239050#2 555197196#0 555197196#1 555197196#2 555197196#3 555197196#4 39013523#1 39013523#2 39013523#3 39013523#4 39013523#5 39013523#6 39013523#7 70258965#0 70258965#1 70258965#2 70258965#3 170767287#0 170767287#1 170767287#2 170767287#3 77349489#1 77349489#2 77349489#3 77349489#4 77349489#5 77349489#6 1491586823 70258954#1 70258954#3 70258954#4 70258954#5 555197204 679512999-AddedOnRampEdge 679512999 679512999-AddedOffRampEdge 812684509 631795142 76834907#1 76834908 682971785 76834886#1 682971783 682971782 555197220#0 555197220#1 813012744"/>
        <stop busStop="5426388558" duration="30.00"/>
        <stop busStop="6395693844" duration="30.00"/>
        <stop busStop="5121928125" duration="30.00"/>
        <stop busStop="5121928128" duration="30.00"/>
        <stop busStop="5121928130" duration="30.00"/>
        <stop busStop="6396989742" duration="30.00"/>
    </vehicle>

    <vehicle id="77_bus_405:1" type="pt_bus" depart="548.00" departLane="0" arrival="1188.00">
        <route edges="662141606#0 662141606#4 662141606#4-AddedOffRampEdge 662141606#5 662141606#6 760525681#0 760525681#1 584241794 202645529#0 202645529#1 202645529#2 1312806548 584241793#0 584241793#4 1090402162 77339656#0 77339656#1 77339656#4 77339656#5 77339656#6 77339656#11 77339656#12 77339656#13 680551215 561759719#0 561759719#1 561759719#2 561759719#3 561759719#4 678397108 678397106 678397105 555242574-AddedOnRampEdge 555242574 77349464#0 77349464#1 77349464#1-AddedOffRampEdge 77349464#2 562479736#0 562479736#1 562479736#3 562479736#4"/>
        <stop busStop="6198752458" duration="30.00"/>
        <stop busStop="910451189" duration="30.00"/>
        <stop busStop="6371764317" duration="30.00"/>
        <stop busStop="5273109722" duration="30.00"/>
        <stop busStop="5342182750" duration="30.00"/>
        <stop busStop="5342182505" duration="30.00"/>
    </vehicle>

    <vehicle id="49_bus_413:1" type="pt_bus" depart="350.00" departLane="0" arrival="1235.00">