<?xml version="1.0" encoding="UTF-8"?>

<!-- generated on 2026-07-16T16:15:12.636287+05:30 by Eclipse SUMO sumo 1.27.1
<sumoConfiguration xmlns:xsi="http://www.w3.org/2001/XMLSchema-instance" xsi:noNamespaceSchemaLocation="http://sumo.dlr.de/xsd/sumoConfiguration.xsd">

    <input>
        <net-file value="D:\SUMO_Workspace\Projects\Ai-traffic-Control-System\maps\osm\osm.net.xml.gz"/>
        <route-files value="D:\SUMO_Workspace\Projects\Ai-traffic-Control-System\maps\osm\scenario_passenger.trips.xml,D:\SUMO_Workspace\Projects\Ai-traffic-Control-System\maps\osm\osm_pt.rou.xml"/>
        <additional-files value="D:\SUMO_Workspace\Projects\Ai-traffic-Control-System\maps\osm\osm_stops.add.xml,D:\SUMO_Workspace\Projects\Ai-traffic-Control-System\maps\osm\output.add.xml,D:\SUMO_Workspace\Projects\Ai-traffic-Control-System\maps\osm\detectors.add.xml"/>
    </input>

    <output>
        <tripinfo-output value="D:\SUMO_Workspace\Projects\Ai-traffic-Control-System\maps\osm\tripinfos.xml"/>
        <stop-output value="D:\SUMO_Workspace\Projects\Ai-traffic-Control-System\maps\osm\stopinfos.xml"/>
        <statistic-output value="D:\SUMO_Workspace\Projects\Ai-traffic-Control-System\maps\osm\stats.xml"/>
    </output>

    <processing>
        <ignore-route-errors value="true"/>
        <tls.actuated.jam-threshold value="30"/>
    </processing>

    <routing>
        <device.rerouting.adaptation-steps value="18"/>
        <device.rerouting.adaptation-interval value="10"/>
    </routing>

    <report>
        <verbose value="true"/>
        <duration-log.statistics value="true"/>
        <no-step-log value="true"/>
    </report>

    <traci_server>
        <remote-port value="58588"/>
    </traci_server>

    <gui_only>
        <gui-settings-file value="D:\SUMO_Workspace\Projects\Ai-traffic-Control-System\maps\osm\osm.view.xml"/>
    </gui_only>

</sumoConfiguration>
-->

<tripinfos xmlns:xsi="http://www.w3.org/2001/XMLSchema-instance" xsi:noNamespaceSchemaLocation="http://sumo.dlr.de/xsd/tripinfo_file.xsd">
    <tripinfo id="low_00000" depart="8.00" departLane="711421334#3_0" departPos="5.10" departSpeed="23.55" departDelay="0.83" arrival="35.00" arrivalLane="537797267#3_0" arrivalPos="264.72" arrivalSpeed="28.60" duration="27.00" routeLength="369.07" waitingTime="2.00" waitingCount="1" stopTime="0.00" timeLoss="12.08" rerouteNo="0" devices="tripinfo_low_00000 routing_low_00000" vType="DEFAULT_VEHTYPE" speedFactor="1.06" vaporized=""/>
    <tripinfo id="low_00001" depart="15.00" departLane="24563448#3_1" departPos="5.10" departSpeed="18.96" departDelay="0.99" arrival="39.00" arrivalLane="537797267#3_0" arrivalPos="264.72" arrivalSpeed="25.88" duration="24.00" routeLength="336.21" waitingTime="0.00" waitingCount="0" stopTime="0.00" timeLoss="8.55" rerouteNo="0" devices="tripinfo_low_00001 routing_low_00001" vType="DEFAULT_VEHTYPE" speedFactor="0.94" vaporized=""/>
    <tripinfo id="low_00002" depart="29.00" departLane="537797267#3_0" departPos="5.10" departSpeed="19.01" departDelay="0.89" arrival="53.00" arrivalLane="23134098#1_0" arrivalPos="104.67" arrivalSpeed="13.06" duration="24.00" routeLength="373.30" waitingTime="0.00" waitingCount="0" stopTime="0.00" timeLoss="5.46" rerouteNo="0" devices="tripinfo_low_00002 routing_low_00002" vType="DEFAULT_VEHTYPE" speedFactor="1.01" vaporized=""/>
    <tripinfo id="pt_bus_281:0.0" depart="3.00" departLane="570413587#1_0" departPos="12.10" departSpeed="22.22" departDelay="0.00" arrival="60.00" arrivalLane="570413587#1_0" arrivalPos="166.19" arrivalSpeed="11.29" duration="57.00" routeLength="154.09" waitingTime="0.00" waitingCount="0" stopTime="37.00" timeLoss="4.10" rerouteNo="0" devices="tripinfo_pt_bus_281:0.0" vType="pt_bus" speedFactor="1.00" vaporized=""/>
    <tripinfo id="low_00003" depart="40.00" departLane="24577478#1_0" departPos="5.10" departSpeed="7.43" departDelay="0.33" arrival="63.00" arrivalLane="24583327#15_0" arrivalPos="22.35" arrivalSpeed="11.00" duration="23.00" routeLength="44.02" waitingTime="13.00" waitingCount="1" stopTime="0.00" timeLoss="19.84" rerouteNo="0" devices="tripinfo_low_00003 routing_low_00003" vType="DEFAULT_VEHTYPE" speedFactor="1.08" vaporized=""/>
</tripinfos>
