<?xml version="1.0" encoding="UTF-8"?>

<!-- generated on 2026-07-20T03:17:39.654225+05:30 by Eclipse SUMO sumo 1.27.1
<sumoConfiguration xmlns:xsi="http://www.w3.org/2001/XMLSchema-instance" xsi:noNamespaceSchemaLocation="http://sumo.dlr.de/xsd/sumoConfiguration.xsd">

    <input>
        <net-file value="C:\Users\sudha\OneDrive\Desktop\SUMO_Workspace\Projects\Ai-traffic-Control-System\maps\osm\osm.net.xml.gz"/>
        <route-files value="C:\Users\sudha\OneDrive\Desktop\SUMO_Workspace\Projects\Ai-traffic-Control-System\maps\osm\scenario_passenger.trips.xml,C:\Users\sudha\OneDrive\Desktop\SUMO_Workspace\Projects\Ai-traffic-Control-System\maps\osm\osm_pt.rou.xml"/>
        <additional-files value="C:\Users\sudha\OneDrive\Desktop\SUMO_Workspace\Projects\Ai-traffic-Control-System\maps\osm\osm_stops.add.xml,C:\Users\sudha\OneDrive\Desktop\SUMO_Workspace\Projects\Ai-traffic-Control-System\maps\osm\output.add.xml,C:\Users\sudha\OneDrive\Desktop\SUMO_Workspace\Projects\Ai-traffic-Control-System\maps\osm\detectors.add.xml"/>
    </input>

    <output>
        <tripinfo-output value="C:\Users\sudha\OneDrive\Desktop\SUMO_Workspace\Projects\Ai-traffic-Control-System\maps\osm\tripinfos.xml"/>
        <stop-output value="C:\Users\sudha\OneDrive\Desktop\SUMO_Workspace\Projects\Ai-traffic-Control-System\maps\osm\stopinfos.xml"/>
        <statistic-output value="C:\Users\sudha\OneDrive\Desktop\SUMO_Workspace\Projects\Ai-traffic-Control-System\maps\osm\stats.xml"/>
    </output>

    <processing>
        <ignore-route-errors value="true"/>
        <tls.actuated.jam-threshold value="30"/>
    </processing>

    <routing>
        <device.rerouting.adaptation-steps value="18"/>
        <device.rerouting.adaptation-interval value="10"/>
    </routing>

    <report>
        <verbose value="true"/>
        <duration-log.statistics value="true"/>
        <no-step-log value="true"/>
    </report>

    <traci_server>
        <remote-port value="64887"/>
    </traci_server>

    <gui_only>
        <gui-settings-file value="C:\Users\sudha\OneDrive\Desktop\SUMO_Workspace\Projects\Ai-traffic-Control-System\maps\osm\osm.view.xml"/>
    </gui_only>

</sumoConfiguration>
-->

<tripinfos xmlns:xsi="http://www.w3.org/2001/XMLSchema-instance" xsi:noNamespaceSchemaLocation="http://sumo.dlr.de/xsd/tripinfo_file.xsd">
    <tripinfo id="low_00000" depart="8.00" departLane="711421334#3_0" departPos="5.10" departSpeed="23.55" departDelay="0.83" arrival="35.00" arrivalLane="537797267#3_0" arrivalPos="264.72" arrivalSpeed="28.60" duration="27.00" routeLength="369.07" waitingTime="2.00" waitingCount="1" stopTime="0.00" timeLoss="12.08" rerouteNo="0" devices="tripinfo_low_00000 routing_low_00000" vType="DEFAULT_VEHTYPE" speedFactor="1.06" vaporized=""/>
    <tripinfo id="low_00001" depart="15.00" departLane="24563448#3_1" departPos="5.10" departSpeed="18.96" departDelay="0.99" arrival="39.00" arrivalLane="537797267#3_0" arrivalPos="264.72" arrivalSpeed="25.88" duration="24.00" routeLength="336.21" waitingTime="0.00" waitingCount="0" stopTime="0.00" timeLoss="8.55" rerouteNo="0" devices="tripinfo_low_00001 routing_low_00001" vType="DEFAULT_VEHTYPE" speedFactor="0.94" vaporized=""/>
    <tripinfo id="low_00002" depart="29.00" departLane="537797267#3_0" departPos="5.10" departSpeed="19.01" departDelay="0.89" arrival="53.00" arrivalLane="23134098#1_0" arrivalPos="104.67" arrivalSpeed="13.06" duration="24.00" routeLength="373.30" waitingTime="0.00" waitingCount="0" stopTime="0.00" timeLoss="5.46" rerouteNo="0" devices="tripinfo_low_00002 routing_low_00002" vType="DEFAULT_VEHTYPE" speedFactor="1.01" vaporized=""/>
    <tripinfo id="pt_bus_281:0.0" depart="3.00" departLane="570413587#1_0" departPos="12.10" departSpeed="22.22" departDelay="0.00" arrival="60.00" arrivalLane="570413587#1_0" arrivalPos="166.19" arrivalSpeed="11.29" duration="57.00" routeLength="154.09" waitingTime="0.00" waitingCount="0" stopTime="37.00" timeLoss="4.10" rerouteNo="0" devices="tripinfo_pt_bus_281:0.0" vType="pt_bus" speedFactor="1.00" vaporized=""/>
    <tripinfo id="low_00003" depart="40.00" departLane="24577478#1_0" departPos="5.10" departSpeed="7.43" departDelay="0.33" arrival="63.00" arrivalLane="24583327#15_0" arrivalPos="22.35" arrivalSpeed="11.00" duration="23.00" routeLength="44.02" waitingTime="13.00" waitingCount="1" stopTime="0.00" timeLoss="19.84" rerouteNo="0" devices="tripinfo_low_00003 routing_low_00003" vType="DEFAULT_VEHTYPE" speedFactor="1.08" vaporized=""/>
    <tripinfo id="low_00004" depart="56.00" departLane="1307222666#1_0" departPos="5.10" departSpeed="28.62" departDelay="0.01" arrival="108.00" arrivalLane="1493678683#1_0" arrivalPos="146.64" arrivalSpeed="24.92" duration="52.00" routeLength="436.33" waitingTime="24.00" waitingCount="1" stopTime="0.00" timeLoss="35.15" rerouteNo="0" devices="tripinfo_low_00004 routing_low_00004" vType="DEFAULT_VEHTYPE" speedFactor="1.03" vaporized=""/>
    <tripinfo id="low_00006" depart="82.00" departLane="24584375#1_0" departPos="5.10" departSpeed="23.24" departDelay="0.71" arrival="108.00" arrivalLane="24584375#3_0" arrivalPos="52.38" arrivalSpeed="17.54" duration="26.00" routeLength="208.71" waitingTime="7.00" waitingCount="1" stopTime="0.00" timeLoss="16.30" rerouteNo="0" devices="tripinfo_low_00006 routing_low_00006" vType="DEFAULT_VEHTYPE" speedFactor="1.05" vaporized=""/>
    <tripinfo id="low_00009" depart="111.00" departLane="-24584383#0_0" departPos="0.35" departSpeed="0.00" departDelay="0.95" arrival="118.00" arrivalLane="24584377#7_1" arrivalPos="5.21" arrivalSpeed="6.43" duration="7.00" routeLength="14.11" waitingTime="3.00" waitingCount="1" stopTime="0.00" timeLoss="5.34" rerouteNo="0" devices="tripinfo_low_00009 routing_low_00009" vType="DEFAULT_VEHTYPE" speedFactor="0.86" vaporized=""/>
    <tripinfo id="low_00007" depart="87.00" departLane="1493678685_0" departPos="5.10" departSpeed="24.61" departDelay="0.47" arrival="129.00" arrivalLane="1493678683#1_0" arrivalPos="146.64" arrivalSpeed="24.08" duration="42.00" routeLength="363.53" waitingTime="17.00" waitingCount="1" stopTime="0.00" timeLoss="26.74" rerouteNo="0" devices="tripinfo_low_00007 routing_low_00007" vType="DEFAULT_VEHTYPE" speedFactor="0.89" vaporized=""/>
    <tripinfo id="low_00005" depart="68.00" departLane="1493678685_0" departPos="5.10" departSpeed="23.09" departDelay="0.52" arrival="132.00" arrivalLane="-1307222666#1_0" arrivalPos="269.27" arrivalSpeed="22.53" duration="64.00" routeLength="457.48" waitingTime="34.00" waitingCount="1" stopTime="0.00" timeLoss="42.39" rerouteNo="0" devices="tripinfo_low_00005 routing_low_00005" vType="DEFAULT_VEHTYPE" speedFactor="0.83" vaporized=""/>
    <tripinfo id="low_00010" depart="124.00" departLane="582461172#0_0" departPos="0.20" departSpeed="0.00" departDelay="0.36" arrival="133.00" arrivalLane="582461172#1_4" arrivalPos="11.94" arrivalSpeed="7.82" duration="9.00" routeLength="16.28" waitingTime="5.00" waitingCount="1" stopTime="0.00" timeLoss="7.76" rerouteNo="0" devices="tripinfo_low_00010 routing_low_00010" vType="DEFAULT_VEHTYPE" speedFactor="1.09" vaporized=""/>
    <tripinfo id="low_00008" depart="102.00" departLane="24563448#3_0" departPos="5.10" departSpeed="18.96" departDelay="0.66" arrival="154.00" arrivalLane="-537797267#1_0" arrivalPos="595.49" arrivalSpeed="25.59" duration="52.00" routeLength="659.76" waitingTime="15.00" waitingCount="1" stopTime="0.00" timeLoss="24.59" rerouteNo="0" devices="tripinfo_low_00008 routing_low_00008" vType="DEFAULT_VEHTYPE" speedFactor="0.94" vaporized=""/>
    <tripinfo id="low_00012" depart="147.00" departLane="563974730#5_0" departPos="5.10" departSpeed="11.50" departDelay="0.98" arrival="158.00" arrivalLane="24583327#15_0" arrivalPos="22.35" arrivalSpeed="13.19" duration="11.00" routeLength="77.55" waitingTime="0.00" waitingCount="0" stopTime="0.00" timeLoss="6.82" rerouteNo="0" devices="tripinfo_low_00012 routing_low_00012" vType="DEFAULT_VEHTYPE" speedFactor="1.05" vaporized=""/>
    <tripinfo id="low_00011" depart="139.00" departLane="24577478#1_0" departPos="5.10" departSpeed="7.43" departDelay="0.96" arrival="176.00" arrivalLane="1066619122#0_2" arrivalPos="0.20" arrivalSpeed="8.07" duration="37.00" routeLength="37.45" waitingTime="27.00" waitingCount="1" stopTime="0.00" timeLoss="34.29" rerouteNo="0" devices="tripinfo_low_00011 routing_low_00011" vType="DEFAULT_VEHTYPE" speedFactor="1.03" vaporized=""/>
    <tripinfo id="low_00013" depart="160.00" departLane="23134098#0_0" departPos="5.10" departSpeed="15.60" departDelay="0.53" arrival="191.00" arrivalLane="23134098#1_0" arrivalPos="104.67" arrivalSpeed="14.75" duration="31.00" routeLength="239.94" waitingTime="9.00" waitingCount="1" stopTime="0.00" timeLoss="15.23" rerouteNo="0" devices="tripinfo_low_00013 routing_low_00013" vType="DEFAULT_VEHTYPE" speedFactor="1.12" vaporized=""/>
    <tripinfo id="low_00015" depart="187.00" departLane="1493678685_1" departPos="5.10" departSpeed="25.75" departDelay="0.62" arrival="209.00" arrivalLane="1307222667#1_5" arrivalPos="151.38" arrivalSpeed="23.64" duration="22.00" routeLength="319.40" waitingTime="0.00" waitingCount="0" stopTime="0.00" timeLoss="8.58" rerouteNo="0" devices="tripinfo_low_00015 routing_low_00015" vType="DEFAULT_VEHTYPE" speedFactor="0.93" vaporized=""/>
    <tripinfo id="low_00017" depart="211.00" departLane="-537797267#3_0" departPos="5.10" departSpeed="26.15" departDelay="0.25" arrival="230.00" arrivalLane="711421334#6_0" arrivalPos="54.76" arrivalSpeed="16.08" duration="19.00" routeLength="328.61" waitingTime="0.00" waitingCount="0" stopTime="0.00" timeLoss="4.11" rerouteNo="0" devices="tripinfo_low_00017 routing_low_00017" vType="DEFAULT_VEHTYPE" speedFactor="0.94" vaporized=""/>
    <tripinfo id="low_00018" depart="225.00" departLane="24583327#11_0" departPos="5.10" departSpeed="5.07" departDelay="0.40" arrival="234.00" arrivalLane="24583327#15_0" arrivalPos="22.35" arrivalSpeed="14.80" duration="9.00" routeLength="62.73" waitingTime="0.00" waitingCount="0" stopTime="0.00" timeLoss="6.49" rerouteNo="0" devices="tripinfo_low_00018 routing_low_00018" vType="DEFAULT_VEHTYPE" speedFactor="0.94" vaporized=""/>
    <tripinfo id="low_00014" depart="176.00" departLane="359757123_0" departPos="5.10" departSpeed="27.54" departDelay="0.74" arrival="237.00" arrivalLane="709276135#1_0" arrivalPos="79.51" arrivalSpeed="18.18" duration="61.00" routeLength="677.04" waitingTime="26.00" waitingCount="1" stopTime="0.00" timeLoss="35.15" rerouteNo="0" devices="tripinfo_low_00014 routing_low_00014" vType="DEFAULT_VEHTYPE" speedFactor="0.99" vaporized=""/>
    <tripinfo id="low_00019" depart="230.00" departLane="537797267#1_0" departPos="5.10" departSpeed="32.17" departDelay="0.15" arrival="258.00" arrivalLane="24563448#6_0" arrivalPos="93.42" arrivalSpeed="21.88" duration="28.00" routeLength="699.95" waitingTime="0.00" waitingCount="0" stopTime="0.00" timeLoss="4.40" rerouteNo="0" devices="tripinfo_low_00019 routing_low_00019" vType="DEFAULT_VEHTYPE" speedFactor="1.16" vaporized=""/>
    <tripinfo id="pt_bus_890:1.0" depart="131.00" departLane="760536610#1_5" departPos="12.10" departSpeed="27.78" departDelay="0.00" arrival="262.00" arrivalLane="782774056#1_1" arrivalPos="19.33" arrivalSpeed="7.09" duration="131.00" routeLength="1805.10" waitingTime="0.00" waitingCount="0" stopTime="0.00" timeLoss="58.01" rerouteNo="0" devices="tripinfo_pt_bus_890:1.0" vType="pt_bus" speedFactor="1.00" vaporized=""/>
    <tripinfo id="low_00016" depart="196.00" departLane="-537797267#1_0" departPos="5.10" departSpeed="24.40" departDelay="0.35" arrival="279.00" arrivalLane="537797267#1_0" arrivalPos="595.50" arrivalSpeed="23.20" duration="83.00" routeLength="1190.56" waitingTime="22.00" waitingCount="1" stopTime="0.00" timeLoss="32.86" rerouteNo="0" devices="tripinfo_low_00016 routing_low_00016" vType="DEFAULT_VEHTYPE" speedFactor="0.88" vaporized=""/>
    <tripinfo id="low_00020" depart="249.00" departLane="-359757123_0" departPos="5.10" departSpeed="28.28" departDelay="0.43" arrival="282.00" arrivalLane="-1307222666#1_0" arrivalPos="269.27" arrivalSpeed="27.10" duration="33.00" routeLength="890.51" waitingTime="0.00" waitingCount="0" stopTime="0.00" timeLoss="0.87" rerouteNo="0" devices="tripinfo_low_00020 routing_low_00020" vType="DEFAULT_VEHTYPE" speedFactor="1.02" vaporized=""/>
    <tripinfo id="pt_bus_680:1.0" depart="165.00" departLane="708474897#0_0" departPos="12.10" departSpeed="27.78" departDelay="0.00" arrival="286.00" arrivalLane="-782774057#0_0" arrivalPos="524.47" arrivalSpeed="21.97" duration="121.00" routeLength="1280.15" waitingTime="0.00" waitingCount="0" stopTime="46.00" timeLoss="10.92" rerouteNo="0" devices="tripinfo_pt_bus_680:1.0" vType="pt_bus" speedFactor="1.00" vaporized=""/>
    <tripinfo id="low_00022" depart="269.00" departLane="675478334#9_0" departPos="5.10" departSpeed="13.54" departDelay="0.34" arrival="293.00" arrivalLane="24584377#7_0" arrivalPos="5.21" arrivalSpeed="7.13" duration="24.00" routeLength="75.79" waitingTime="14.00" waitingCount="1" stopTime="0.00" timeLoss="17.95" rerouteNo="0" devices="tripinfo_low_00022 routing_low_00022" vType="DEFAULT_VEHTYPE" speedFactor="0.97" vaporized=""/>
    <tripinfo id="pt_bus_580:0.0" depart="201.00" departLane="714990514#0_0" departPos="12.10" departSpeed="22.22" departDelay="0.00" arrival="302.00" arrivalLane="570413587#1_0" arrivalPos="166.19" arrivalSpeed="11.75" duration="101.00" routeLength="686.22" waitingTime="0.00" waitingCount="0" stopTime="44.00" timeLoss="16.50" rerouteNo="0" devices="tripinfo_pt_bus_580:0.0" vType="pt_bus" speedFactor="1.00" vaporized=""/>
    <tripinfo id="low_00023" depart="280.00" departLane="24584375#1_1" departPos="5.10" departSpeed="19.77" departDelay="0.89" arrival="303.00" arrivalLane="-24584383#0_0" arrivalPos="0.35" arrivalSpeed="5.37" duration="23.00" routeLength="152.51" waitingTime="8.00" waitingCount="1" stopTime="0.00" timeLoss="13.87" rerouteNo="0" devices="tripinfo_low_00023 routing_low_00023" vType="DEFAULT_VEHTYPE" speedFactor="0.89" vaporized=""/>
    <tripinfo id="low_00021" depart="260.00" departLane="-537797267#1_0" departPos="5.10" departSpeed="28.06" departDelay="0.34" arrival="311.00" arrivalLane="-359757123_0" arrivalPos="590.68" arrivalSpeed="27.97" duration="51.00" routeLength="1202.41" waitingTime="0.00" waitingCount="0" stopTime="0.00" timeLoss="7.40" rerouteNo="0" devices="tripinfo_low_00021 routing_low_00021" vType="DEFAULT_VEHTYPE" speedFactor="1.01" vaporized=""/>
    <tripinfo id="low_00025" depart="305.00" departLane="-24584383#1_0" departPos="0.20" departSpeed="0.00" departDelay="0.37" arrival="317.00" arrivalLane="24584383#1_0" arrivalPos="0.20" arrivalSpeed="3.02" duration="12.00" routeLength="4.90" waitingTime="9.00" waitingCount="1" stopTime="0.00" timeLoss="10.60" rerouteNo="0" devices="tripinfo_low_00025 routing_low_00025" vType="DEFAULT_VEHTYPE" speedFactor="0.87" vaporized=""/>
    <tripinfo id="pt_bus_540:0.0" depart="207.00" departLane="714990514#0_0" departPos="12.10" departSpeed="22.22" departDelay="0.00" arrival="339.00" arrivalLane="570413587#1_0" arrivalPos="166.19" arrivalSpeed="11.35" duration="132.00" routeLength="686.22" waitingTime="40.00" waitingCount="2" stopTime="31.00" timeLoss="57.24" rerouteNo="0" devices="tripinfo_pt_bus_540:0.0" vType="pt_bus" speedFactor="1.00" vaporized=""/>
    <tripinfo id="low_00027" depart="327.00" departLane="24583327#11_0" departPos="5.10" departSpeed="5.07" departDelay="0.39" arrival="349.00" arrivalLane="74851428#1_0" arrivalPos="9.10" arrivalSpeed="11.28" duration="22.00" routeLength="48.95" waitingTime="11.00" waitingCount="1" stopTime="0.00" timeLoss="18.41" rerouteNo="0" devices="tripinfo_low_00027 routing_low_00027" vType="DEFAULT_VEHTYPE" speedFactor="0.95" vaporized=""/>
    <tripinfo id="low_00026" depart="315.00" departLane="-537797267#3_0" departPos="5.10" departSpeed="25.48" departDelay="0.42" arrival="351.00" arrivalLane="-537797267#1_0" arrivalPos="595.49" arrivalSpeed="24.35" duration="36.00" routeLength="876.84" waitingTime="0.00" waitingCount="0" stopTime="0.00" timeLoss="1.12" rerouteNo="0" devices="tripinfo_low_00026 routing_low_00026" vType="DEFAULT_VEHTYPE" speedFactor="0.92" vaporized=""/>
    <tripinfo id="low_00024" depart="298.00" departLane="709276138#1_0" departPos="5.10" departSpeed="22.94" departDelay="0.16" arrival="356.00" arrivalLane="537797267#1_0" arrivalPos="595.50" arrivalSpeed="22.03" duration="58.00" routeLength="683.12" waitingTime="16.00" waitingCount="1" stopTime="0.00" timeLoss="26.41" rerouteNo="0" devices="tripinfo_low_00024 routing_low_00024" vType="DEFAULT_VEHTYPE" speedFactor="0.83" vaporized=""/>
    <tripinfo id="low_00029" depart="355.00" departLane="24584375#1_0" departPos="5.10" departSpeed="20.69" departDelay="0.13" arrival="365.00" arrivalLane="24584383#1_0" arrivalPos="0.20" arrivalSpeed="7.74" duration="10.00" routeLength="150.27" waitingTime="0.00" waitingCount="0" stopTime="0.00" timeLoss="1.68" rerouteNo="0" devices="tripinfo_low_00029 routing_low_00029" vType="DEFAULT_VEHTYPE" speedFactor="0.93" vaporized=""/>
    <tripinfo id="low_00030" depart="369.00" departLane="-537797267#3_0" departPos="5.10" departSpeed="32.74" departDelay="0.42" arrival="403.00" arrivalLane="537797267#3_0" arrivalPos="264.72" arrivalSpeed="32.56" duration="34.00" routeLength="529.10" waitingTime="3.00" waitingCount="1" stopTime="0.00" timeLoss="15.94" rerouteNo="0" devices="tripinfo_low_00030 routing_low_00030" vType="DEFAULT_VEHTYPE" speedFactor="1.18" vaporized=""/>
    <tripinfo id="low_00028" depart="345.00" departLane="1307222666#1_0" departPos="5.10" departSpeed="31.44" departDelay="0.08" arrival="408.00" arrivalLane="359757123_0" arrivalPos="590.91" arrivalSpeed="31.43" duration="63.00" routeLength="890.71" waitingTime="21.00" waitingCount="1" stopTime="0.00" timeLoss="33.78" rerouteNo="0" devices="tripinfo_low_00028 routing_low_00028" vType="DEFAULT_VEHTYPE" speedFactor="1.13" vaporized=""/>
    <tripinfo id="pt_bus_282:0.0" depart="21.00" departLane="581245363#4_0" departPos="12.10" departSpeed="3.70" departDelay="0.00" arrival="409.00" arrivalLane="714990513#3_0" arrivalPos="104.70" arrivalSpeed="10.95" duration="388.00" routeLength="1322.70" waitingTime="127.00" waitingCount="6" stopTime="89.00" timeLoss="206.22" rerouteNo="0" devices="tripinfo_pt_bus_282:0.0" vType="pt_bus" speedFactor="1.00" vaporized=""/>
    <tripinfo id="low_00031" depart="380.00" departLane="709276138#1_1" departPos="5.10" departSpeed="23.32" departDelay="0.07" arrival="410.00" arrivalLane="-359757123_1" arrivalPos="590.68" arrivalSpeed="31.05" duration="30.00" routeLength="685.24" waitingTime="0.00" waitingCount="0" stopTime="0.00" timeLoss="6.84" rerouteNo="0" devices="tripinfo_low_00031 routing_low_00031" vType="DEFAULT_VEHTYPE" speedFactor="1.15" vaporized=""/>
    <tripinfo id="low_00034" depart="413.00" departLane="997761547#0_0" departPos="5.10" departSpeed="10.79" departDelay="0.02" arrival="424.00" arrivalLane="24583327#15_0" arrivalPos="22.35" arrivalSpeed="10.21" duration="11.00" routeLength="56.66" waitingTime="1.00" waitingCount="1" stopTime="0.00" timeLoss="6.75" rerouteNo="0" devices="tripinfo_low_00034 routing_low_00034" vType="DEFAULT_VEHTYPE" speedFactor="0.99" vaporized=""/>
    <tripinfo id="low_00032" depart="391.00" departLane="537797267#1_0" departPos="5.10" departSpeed="27.92" departDelay="0.70" arrival="438.00" arrivalLane="537797267#3_0" arrivalPos="264.72" arrivalSpeed="26.94" duration="47.00" routeLength="876.83" waitingTime="3.00" waitingCount="1" stopTime="0.00" timeLoss="14.90" rerouteNo="0" devices="tripinfo_low_00032 routing_low_00032" vType="DEFAULT_VEHTYPE" speedFactor="1.01" vaporized=""/>
    <tripinfo id="low_00033" depart="406.00" departLane="709276138#1_1" departPos="5.10" departSpeed="23.32" departDelay="0.03" arrival="445.00" arrivalLane="709276135#1_1" arrivalPos="79.51" arrivalSpeed="17.70" duration="39.00" routeLength="156.64" waitingTime="23.00" waitingCount="1" stopTime="0.00" timeLoss="33.61" rerouteNo="0" devices="tripinfo_low_00033 routing_low_00033" vType="DEFAULT_VEHTYPE" speedFactor="1.17" vaporized=""/>
    <tripinfo id="low_00035" depart="427.00" departLane="-537797267#1_0" departPos="5.10" departSpeed="28.33" departDelay="0.56" arrival="467.00" arrivalLane="709281061#1_0" arrivalPos="110.26" arrivalSpeed="23.41" duration="40.00" routeLength="715.86" waitingTime="5.00" waitingCount="1" stopTime="0.00" timeLoss="13.42" rerouteNo="0" devices="tripinfo_low_00035 routing_low_00035" vType="DEFAULT_VEHTYPE" speedFactor="1.02" vaporized=""/>
    <tripinfo id="low_00037" depart="451.00" departLane="1354558617_0" departPos="0.20" departSpeed="0.00" departDelay="0.00" arrival="477.00" arrivalLane="24584375#3_1" arrivalPos="52.38" arrivalSpeed="16.79" duration="26.00" routeLength="63.92" waitingTime="18.00" waitingCount="1" stopTime="0.00" timeLoss="22.65" rerouteNo="0" devices="tripinfo_low_00037 routing_low_00037" vType="DEFAULT_VEHTYPE" speedFactor="1.18" vaporized=""/>
    <tripinfo id="low_00036" depart="441.00" departLane="537797266#4_1" departPos="5.10" departSpeed="13.52" departDelay="0.23" arrival="478.00" arrivalLane="537797267#1_0" arrivalPos="595.50" arrivalSpeed="26.14" duration="37.00" routeLength="715.63" waitingTime="0.00" waitingCount="0" stopTime="0.00" timeLoss="5.40" rerouteNo="0" devices="tripinfo_low_00036 routing_low_00036" vType="DEFAULT_VEHTYPE" speedFactor="0.97" vaporized=""/>
    <tripinfo id="pt_bus_480:1.0" depart="389.00" departLane="714990514#0_0" departPos="12.10" departSpeed="22.22" departDelay="0.00" arrival="488.00" arrivalLane="570413587#1_0" arrivalPos="166.19" arrivalSpeed="11.78" duration="99.00" routeLength="686.22" waitingTime="0.00" waitingCount="0" stopTime="43.00" timeLoss="15.30" rerouteNo="0" devices="tripinfo_pt_bus_480:1.0" vType="pt_bus" speedFactor="1.00" vaporized=""/>
    <tripinfo id="low_00040" depart="488.00" departLane="675478334#9_0" departPos="5.10" departSpeed="14.31" departDelay="0.28" arrival="497.00" arrivalLane="1354558617_0" arrivalPos="0.20" arrivalSpeed="8.52" duration="9.00" routeLength="72.95" waitingTime="0.00" waitingCount="0" stopTime="0.00" timeLoss="3.48" rerouteNo="0" devices="tripinfo_low_00040 routing_low_00040" vType="DEFAULT_VEHTYPE" speedFactor="1.03" vaporized=""/>
    <tripinfo id="low_00038" depart="466.00" departLane="1307222666#1_1" departPos="5.10" departSpeed="30.62" departDelay="0.96" arrival="506.00" arrivalLane="1307222667#1_4" arrivalPos="151.38" arrivalSpeed="26.48" duration="40.00" routeLength="452.15" waitingTime="13.00" waitingCount="1" stopTime="0.00" timeLoss="23.85" rerouteNo="0" devices="tripinfo_low_00038 routing_low_00038" vType="DEFAULT_VEHTYPE" speedFactor="1.10" vaporized=""/>
    <tripinfo id="low_00042" depart="508.00" departLane="24577478#1_0" departPos="5.10" departSpeed="7.43" departDelay="0.29" arrival="519.00" arrivalLane="996679779#1_0" arrivalPos="14.11" arrivalSpeed="14.37" duration="11.00" routeLength="58.77" waitingTime="0.00" waitingCount="0" stopTime="0.00" timeLoss="8.81" rerouteNo="0" devices="tripinfo_low_00042 routing_low_00042" vType="DEFAULT_VEHTYPE" speedFactor="1.09" vaporized=""/>
    <tripinfo id="low_00039" depart="475.00" departLane="537797266#4_0" departPos="5.10" departSpeed="12.51" departDelay="0.35" arrival="526.00" arrivalLane="-359757123_0" arrivalPos="590.68" arrivalSpeed="23.96" duration="51.00" routeLength="700.69" waitingTime="9.00" waitingCount="1" stopTime="0.00" timeLoss="17.62" rerouteNo="0" devices="tripinfo_low_00039 routing_low_00039" vType="DEFAULT_VEHTYPE" speedFactor="0.90" vaporized=""/>
    <tripinfo id="pt_bus_894:0.0" depart="483.00" departLane="116046169#3_0" departPos="12.10" departSpeed="2.90" departDelay="0.00" arrival="530.00" arrivalLane="116046169#3_0" arrivalPos="84.06" arrivalSpeed="11.53" duration="47.00" routeLength="71.96" waitingTime="0.00" waitingCount="0" stopTime="32.00" timeLoss="4.59" rerouteNo="0" devices="tripinfo_pt_bus_894:0.0" vType="pt_bus" speedFactor="1.00" vaporized=""/>
    <tripinfo id="low_00044" depart="531.00" departLane="-24584383#0_0" departPos="0.35" departSpeed="0.00" departDelay="0.53" arrival="548.00" arrivalLane="1354558617_0" arrivalPos="0.20" arrivalSpeed="4.43" duration="17.00" routeLength="7.93" waitingTime="14.00" waitingCount="1" stopTime="0.00" timeLoss="15.23" rerouteNo="0" devices="tripinfo_low_00044 routing_low_00044" vType="DEFAULT_VEHTYPE" speedFactor="1.04" vaporized=""/>
    <tripinfo id="low_00043" depart="521.00" departLane="24563448#3_0" departPos="5.10" departSpeed="18.96" departDelay="0.77" arrival="555.00" arrivalLane="24563448#6_0" arrivalPos="93.42" arrivalSpeed="21.74" duration="34.00" routeLength="171.54" waitingTime="17.00" waitingCount="1" stopTime="0.00" timeLoss="26.26" rerouteNo="0" devices="tripinfo_low_00043 routing_low_00043" vType="DEFAULT_VEHTYPE" speedFactor="1.04" vaporized=""/>
    <tripinfo id="low_00041" depart="495.00" departLane="537797267#1_0" departPos="5.10" departSpeed="26.59" departDelay="0.82" arrival="556.00" arrivalLane="-537797267#1_0" arrivalPos="595.49" arrivalSpeed="25.95" duration="61.00" routeLength="1190.56" waitingTime="4.00" waitingCount="1" stopTime="0.00" timeLoss="14.73" rerouteNo="0" devices="tripinfo_low_00041 routing_low_00041" vType="DEFAULT_VEHTYPE" speedFactor="0.96" vaporized=""/>
    <tripinfo id="low_00045" depart="544.00" departLane="997761547#0_2" departPos="5.10" departSpeed="10.79" departDelay="0.24" arrival="559.00" arrivalLane="996679779#1_0" arrivalPos="14.11" arrivalSpeed="14.12" duration="15.00" routeLength="65.08" waitingTime="4.00" waitingCount="1" stopTime="0.00" timeLoss="10.98" rerouteNo="0" devices="tripinfo_low_00045 routing_low_00045" vType="DEFAULT_VEHTYPE" speedFactor="1.09" vaporized=""/>
    <tripinfo id="pt_bus_281:1.0" depart="15.00" departLane="581245363#4_0" departPos="12.10" departSpeed="22.22" departDelay="0.00" arrival="561.00" arrivalLane="997761545_0" arrivalPos="42.21" arrivalSpeed="19.24" duration="546.00" routeLength="3503.38" waitingTime="38.00" waitingCount="3" stopTime="187.00" timeLoss="146.48" rerouteNo="0" devices="tripinfo_pt_bus_281:1.0" vType="pt_bus" speedFactor="1.00" vaporized=""/>
    <tripinfo id="pt_bus_944:0.0" depart="485.00" departLane="714990514#0_0" departPos="12.10" departSpeed="22.22" departDelay="0.00" arrival="586.00" arrivalLane="570413587#1_0" arrivalPos="166.19" arrivalSpeed="11.48" duration="101.00" routeLength="686.22" waitingTime="0.00" waitingCount="0" stopTime="45.00" timeLoss="15.13" rerouteNo="0" devices="tripinfo_pt_bus_944:0.0" vType="pt_bus" speedFactor="1.00" vaporized=""/>
    <tripinfo id="low_00046" depart="555.00" departLane="711421334#3_0" departPos="5.10" departSpeed="22.16" departDelay="0.35" arrival="588.00" arrivalLane="711421334#6_0" arrivalPos="54.76" arrivalSpeed="17.98" duration="33.00" routeLength="171.31" waitingTime="17.00" waitingCount="1" stopTime="0.00" timeLoss="24.91" rerouteNo="0" devices="tripinfo_low_00046 routing_low_00046" vType="DEFAULT_VEHTYPE" speedFactor="1.00" vaporized=""/>
    <tripinfo id="low_00048" depart="584.00" departLane="-24584383#1_0" departPos="0.20" departSpeed="0.00" departDelay="0.86" arrival="600.00" arrivalLane="-24584383#0_0" arrivalPos="0.35" arrivalSpeed="7.17" duration="16.00" routeLength="13.87" waitingTime="12.00" waitingCount="1" stopTime="0.00" timeLoss="14.59" rerouteNo="0" devices="tripinfo_low_00048 routing_low_00048" vType="DEFAULT_VEHTYPE" speedFactor="0.88" vaporized=""/>
    <tripinfo id="low_00049" depart="593.00" departLane="537797266#4_0" departPos="5.10" departSpeed="11.81" departDelay="0.14" arrival="619.00" arrivalLane="709276135#1_0" arrivalPos="79.51" arrivalSpeed="21.50" duration="26.00" routeLength="205.04" waitingTime="4.00" waitingCount="1" stopTime="0.00" timeLoss="12.09" rerouteNo="0" devices="tripinfo_low_00049 routing_low_00049" vType="DEFAULT_VEHTYPE" speedFactor="0.85" vaporized=""/>
    <tripinfo id="low_00051" depart="616.00" departLane="997761547#0_3" departPos="5.10" departSpeed="16.18" departDelay="0.44" arrival="620.00" arrivalLane="1066619122#0_3" arrivalPos="0.20" arrivalSpeed="3.47" duration="4.00" routeLength="22.69" waitingTime="0.00" waitingCount="0" stopTime="0.00" timeLoss="2.38" rerouteNo="0" devices="tripinfo_low_00051 routing_low_00051" vType="DEFAULT_VEHTYPE" speedFactor="1.17" vaporized=""/>
    <tripinfo id="pt_bus_706A:0.0" depart="26.00" departLane="581245363#4_0" departPos="12.10" departSpeed="4.35" departDelay="0.00" arrival="623.00" arrivalLane="998790356#8_0" arrivalPos="5.24" arrivalSpeed="12.68" duration="597.00" routeLength="3278.86" waitingTime="155.00" waitingCount="6" stopTime="122.00" timeLoss="292.04" rerouteNo="0" devices="tripinfo_pt_bus_706A:0.0" vType="pt_bus" speedFactor="1.00" vaporized=""/>
    <tripinfo id="pt_bus_810:1.0" depart="517.00" departLane="714990514#0_0" departPos="12.10" departSpeed="22.22" departDelay="0.00" arrival="628.00" arrivalLane="570413587#1_0" arrivalPos="166.19" arrivalSpeed="11.68" duration="111.00" routeLength="686.22" waitingTime="17.00" waitingCount="2" stopTime="30.00" timeLoss="41.80" rerouteNo="0" devices="tripinfo_pt_bus_810:1.0" vType="pt_bus" speedFactor="1.00" vaporized=""/>
    <tripinfo id="low_00050" depart="605.00" departLane="23134098#0_0" departPos="5.10" departSpeed="11.87" departDelay="0.09" arrival="633.00" arrivalLane="-537797267#3_0" arrivalPos="264.81" arrivalSpeed="23.49" duration="28.00" routeLength="394.77" waitingTime="0.00" waitingCount="0" stopTime="0.00" timeLoss="5.12" rerouteNo="0" devices="tripinfo_low_00050 routing_low_00050" vType="DEFAULT_VEHTYPE" speedFactor="0.85" vaporized=""/>