<?xml version="1.0" encoding="UTF-8"?>

<!-- generated on 2026-07-12T01:08:02.708413+05:30 by Eclipse SUMO sumo 1.27.1
<sumoConfiguration xmlns:xsi="http://www.w3.org/2001/XMLSchema-instance" xsi:noNamespaceSchemaLocation="http://sumo.dlr.de/xsd/sumoConfiguration.xsd">

    <input>
        <net-file value="D:\SUMO_Workspace\projects\Ai-traffic-Control-System\maps\osm\osm.net.xml.gz"/>
        <route-files value="D:\SUMO_Workspace\projects\Ai-traffic-Control-System\maps\osm\osm.passenger.trips.xml,D:\SUMO_Workspace\projects\Ai-traffic-Control-System\maps\osm\osm_pt.rou.xml"/>
        <additional-files value="D:\SUMO_Workspace\projects\Ai-traffic-Control-System\maps\osm\osm_stops.add.xml,D:\SUMO_Workspace\projects\Ai-traffic-Control-System\maps\osm\output.add.xml,D:\SUMO_Workspace\projects\Ai-traffic-Control-System\maps\osm\detectors.add.xml"/>
    </input>

    <output>
        <tripinfo-output value="D:\SUMO_Workspace\projects\Ai-traffic-Control-System\maps\osm\tripinfos.xml"/>
        <stop-output value="D:\SUMO_Workspace\projects\Ai-traffic-Control-System\maps\osm\stopinfos.xml"/>
        <statistic-output value="D:\SUMO_Workspace\projects\Ai-traffic-Control-System\maps\osm\stats.xml"/>
    </output>

    <processing>
        <ignore-route-errors value="true"/>
        <tls.actuated.jam-threshold value="30"/>
    </processing>

    <routing>
        <device.rerouting.adaptation-steps value="18"/>
        <device.rerouting.adaptation-interval value="10"/>
    </routing>

    <report>
        <verbose value="true"/>
        <duration-log.statistics value="true"/>
        <no-step-log value="true"/>
    </report>

    <traci_server>
        <remote-port value="58387"/>
    </traci_server>

    <gui_only>
        <gui-settings-file value="D:\SUMO_Workspace\projects\Ai-traffic-Control-System\maps\osm\osm.view.xml"/>
    </gui_only>

</sumoConfiguration>
-->

<tripinfos xmlns:xsi="http://www.w3.org/2001/XMLSchema-instance" xsi:noNamespaceSchemaLocation="http://sumo.dlr.de/xsd/tripinfo_file.xsd">
</tripinfos>
