<?xml version="1.0" encoding="UTF-8"?>

<!-- generated on 2026-07-13T02:44:06.594801+05:30 by Eclipse SUMO sumo 1.27.1
<sumoConfiguration xmlns:xsi="http://www.w3.org/2001/XMLSchema-instance" xsi:noNamespaceSchemaLocation="http://sumo.dlr.de/xsd/sumoConfiguration.xsd">

    <input>
        <net-file value="D:\SUMO_Workspace\projects\Ai-traffic-Control-System\maps\osm\osm.net.xml.gz"/>
        <route-files value="D:\SUMO_Workspace\projects\Ai-traffic-Control-System\maps\osm\osm.passenger.trips.xml,D:\SUMO_Workspace\projects\Ai-traffic-Control-System\maps\osm\osm_pt.rou.xml"/>
        <additional-files value="D:\SUMO_Workspace\projects\Ai-traffic-Control-System\maps\osm\osm_stops.add.xml,D:\SUMO_Workspace\projects\Ai-traffic-Control-System\maps\osm\output.add.xml,D:\SUMO_Workspace\projects\Ai-traffic-Control-System\maps\osm\detectors.add.xml"/>
    </input>

    <output>
        <tripinfo-output value="D:\SUMO_Workspace\projects\Ai-traffic-Control-System\maps\osm\tripinfos.xml"/>
        <stop-output value="D:\SUMO_Workspace\projects\Ai-traffic-Control-System\maps\osm\stopinfos.xml"/>
        <statistic-output value="D:\SUMO_Workspace\projects\Ai-traffic-Control-System\maps\osm\stats.xml"/>
    </output>

    <processing>
        <ignore-route-errors value="true"/>
        <tls.actuated.jam-threshold value="30"/>
    </processing>

    <routing>
        <device.rerouting.adaptation-steps value="18"/>
        <device.rerouting.adaptation-interval value="10"/>
    </routing>

    <report>
        <verbose value="true"/>
        <duration-log.statistics value="true"/>
        <no-step-log value="true"/>
    </report>

    <traci_server>
        <remote-port value="50391"/>
    </traci_server>

    <gui_only>
        <gui-settings-file value="D:\SUMO_Workspace\projects\Ai-traffic-Control-System\maps\osm\osm.view.xml"/>
    </gui_only>

</sumoConfiguration>
-->

<tripinfos xmlns:xsi="http://www.w3.org/2001/XMLSchema-instance" xsi:noNamespaceSchemaLocation="http://sumo.dlr.de/xsd/tripinfo_file.xsd">
    <tripinfo id="pt_bus_281:0.0" depart="3.00" departLane="570413587#1_0" departPos="12.10" departSpeed="22.22" departDelay="0.00" arrival="61.00" arrivalLane="570413587#1_0" arrivalPos="166.19" arrivalSpeed="11.62" duration="58.00" routeLength="154.09" waitingTime="0.00" waitingCount="0" stopTime="37.00" timeLoss="4.70" rerouteNo="0" devices="tripinfo_pt_bus_281:0.0" vType="pt_bus" speedFactor="1.00" vaporized=""/>
    <tripinfo id="veh30" depart="55.00" departLane="278577245#4_0" departPos="5.10" departSpeed="22.22" departDelay="0.40" arrival="86.00" arrivalLane="1307222666#1_0" arrivalPos="269.23" arrivalSpeed="32.37" duration="31.00" routeLength="644.45" waitingTime="0.00" waitingCount="0" stopTime="0.00" timeLoss="8.33" rerouteNo="1" devices="tripinfo_veh30 routing_veh30" vType="veh_passenger" speedFactor="1.18" vaporized=""/>
    <tripinfo id="veh5" depart="10.00" departLane="-675478334#0_0" departPos="5.10" departSpeed="11.54" departDelay="0.90" arrival="104.00" arrivalLane="24583321#0_0" arrivalPos="18.96" arrivalSpeed="12.21" duration="94.00" routeLength="1362.48" waitingTime="0.00" waitingCount="0" stopTime="0.00" timeLoss="24.47" rerouteNo="1" devices="tripinfo_veh5 routing_veh5" vType="veh_passenger" speedFactor="0.83" vaporized=""/>
    <tripinfo id="veh18" depart="33.00" departLane="-24577118#1_0" departPos="5.10" departSpeed="12.90" departDelay="0.24" arrival="112.00" arrivalLane="1053851211#12_1" arrivalPos="0.80" arrivalSpeed="25.20" duration="79.00" routeLength="1263.04" waitingTime="0.00" waitingCount="0" stopTime="0.00" timeLoss="22.14" rerouteNo="1" devices="tripinfo_veh18 routing_veh18" vType="veh_passenger" speedFactor="0.94" vaporized=""/>
    <tripinfo id="veh10" depart="19.00" departLane="-235103610#0_0" departPos="5.10" departSpeed="13.89" departDelay="0.80" arrival="120.00" arrivalLane="-24583487#10_1" arrivalPos="2.10" arrivalSpeed="18.25" duration="101.00" routeLength="1398.88" waitingTime="0.00" waitingCount="0" stopTime="0.00" timeLoss="34.01" rerouteNo="1" devices="tripinfo_veh10 routing_veh10" vType="veh_passenger" speedFactor="1.09" vaporized=""/>
    <tripinfo id="veh32" depart="59.00" departLane="-998790356#5_1" departPos="5.10" departSpeed="27.78" departDelay="0.76" arrival="123.00" arrivalLane="-995792406#3_0" arrivalPos="16.23" arrivalSpeed="13.09" duration="64.00" routeLength="806.70" waitingTime="0.00" waitingCount="0" stopTime="0.00" timeLoss="17.69" rerouteNo="1" devices="tripinfo_veh32 routing_veh32" vType="veh_passenger" speedFactor="1.01" vaporized=""/>
    <tripinfo id="veh13" depart="24.00" departLane="24583487#0_0" departPos="5.10" departSpeed="22.22" departDelay="0.34" arrival="126.00" arrivalLane="998790356#1_0" arrivalPos="48.30" arrivalSpeed="24.62" duration="102.00" routeLength="1656.59" waitingTime="0.00" waitingCount="0" stopTime="0.00" timeLoss="42.19" rerouteNo="1" devices="tripinfo_veh13 routing_veh13" vType="veh_passenger" speedFactor="1.12" vaporized=""/>
    <tripinfo id="veh0" depart="0.00" departLane="24584502_0" departPos="5.10" departSpeed="2.02" departDelay="0.00" arrival="135.00" arrivalLane="-1072978656#1_0" arrivalPos="48.08" arrivalSpeed="13.72" duration="135.00" routeLength="1959.01" waitingTime="0.00" waitingCount="0" stopTime="0.00" timeLoss="37.97" rerouteNo="1" devices="tripinfo_veh0 routing_veh0" vType="veh_passenger" speedFactor="1.06" vaporized=""/>
    <tripinfo id="veh28" depart="51.00" departLane="-577982260#0_0" departPos="5.10" departSpeed="13.17" departDelay="0.04" arrival="138.00" arrivalLane="995792406#7_0" arrivalPos="91.24" arrivalSpeed="15.53" duration="87.00" routeLength="1039.67" waitingTime="0.00" waitingCount="0" stopTime="0.00" timeLoss="23.66" rerouteNo="1" devices="tripinfo_veh28 routing_veh28" vType="veh_passenger" speedFactor="1.13" vaporized=""/>
    <tripinfo id="veh9" depart="17.00" departLane="995793692#7_1" departPos="2.29" departSpeed="12.77" departDelay="0.62" arrival="142.00" arrivalLane="1122220363_0" arrivalPos="52.81" arrivalSpeed="11.25" duration="125.00" routeLength="1250.97" waitingTime="26.00" waitingCount="1" stopTime="0.00" timeLoss="49.71" rerouteNo="1" devices="tripinfo_veh9 routing_veh9" vType="veh_passenger" speedFactor="0.86" vaporized=""/>
    <tripinfo id="veh31" depart="57.00" departLane="763520419#0_0" departPos="5.10" departSpeed="22.22" departDelay="0.58" arrival="152.00" arrivalLane="24577096#13_1" arrivalPos="74.43" arrivalSpeed="31.41" duration="95.00" routeLength="1882.48" waitingTime="0.00" waitingCount="0" stopTime="0.00" timeLoss="31.26" rerouteNo="1" devices="tripinfo_veh31 routing_veh31" vType="veh_passenger" speedFactor="1.15" vaporized=""/>
    <tripinfo id="veh7" depart="13.00" departLane="278577243#0_0" departPos="5.10" departSpeed="24.61" departDelay="0.26" arrival="158.00" arrivalLane="24583495#3_0" arrivalPos="18.22" arrivalSpeed="12.05" duration="145.00" routeLength="2637.30" waitingTime="0.00" waitingCount="0" stopTime="0.00" timeLoss="27.88" rerouteNo="1" devices="tripinfo_veh7 routing_veh7" vType="veh_passenger" speedFactor="0.89" vaporized=""/>
    <tripinfo id="veh26" depart="48.00" departLane="709276138#1_1" departPos="5.10" departSpeed="23.32" departDelay="0.68" arrival="179.00" arrivalLane="596373338#11_1" arrivalPos="18.75" arrivalSpeed="25.31" duration="131.00" routeLength="2108.42" waitingTime="0.00" waitingCount="0" stopTime="0.00" timeLoss="40.22" rerouteNo="1" devices="tripinfo_veh26 routing_veh26" vType="veh_passenger" speedFactor="0.92" vaporized=""/>
    <tripinfo id="veh3" depart="6.00" departLane="722082946#1_3" departPos="5.10" departSpeed="24.13" departDelay="0.54" arrival="188.00" arrivalLane="-24577118#11_0" arrivalPos="24.18" arrivalSpeed="10.37" duration="182.00" routeLength="2561.49" waitingTime="18.00" waitingCount="1" stopTime="0.00" timeLoss="77.47" rerouteNo="1" devices="tripinfo_veh3 routing_veh3" vType="veh_passenger" speedFactor="1.08" vaporized=""/>
    <tripinfo id="veh15" depart="28.00" departLane="712992071#5_0" departPos="5.10" departSpeed="25.75" departDelay="0.70" arrival="200.00" arrivalLane="24584375#7_0" arrivalPos="42.76" arrivalSpeed="19.41" duration="172.00" routeLength="3171.89" waitingTime="0.00" waitingCount="0" stopTime="0.00" timeLoss="39.67" rerouteNo="1" devices="tripinfo_veh15 routing_veh15" vType="veh_passenger" speedFactor="0.93" vaporized=""/>
    <tripinfo id="veh8" depart="15.00" departLane="675478334#3_0" departPos="5.10" departSpeed="13.03" departDelay="0.44" arrival="206.00" arrivalLane="-1053851211#5_1" arrivalPos="38.26" arrivalSpeed="12.33" duration="191.00" routeLength="3032.90" waitingTime="0.00" waitingCount="0" stopTime="0.00" timeLoss="55.69" rerouteNo="1" devices="tripinfo_veh8 routing_veh8" vType="veh_passenger" speedFactor="0.94" vaporized=""/>
    <tripinfo id="veh16" depart="30.00" departLane="447141155#2_2" departPos="5.10" departSpeed="24.40" departDelay="0.88" arrival="210.00" arrivalLane="-1122230048_0" arrivalPos="30.17" arrivalSpeed="11.87" duration="180.00" routeLength="2720.71" waitingTime="0.00" waitingCount="0" stopTime="0.00" timeLoss="44.18" rerouteNo="1" devices="tripinfo_veh16 routing_veh16" vType="veh_passenger" speedFactor="0.88" vaporized=""/>
    <tripinfo id="veh22" depart="41.00" departLane="24584512#1_0" departPos="5.10" departSpeed="13.54" departDelay="0.96" arrival="210.00" arrivalLane="24584393_0" arrivalPos="114.11" arrivalSpeed="13.14" duration="169.00" routeLength="2259.69" waitingTime="0.00" waitingCount="0" stopTime="0.00" timeLoss="38.99" rerouteNo="1" devices="tripinfo_veh22 routing_veh22" vType="veh_passenger" speedFactor="0.97" vaporized=""/>
    <tripinfo id="veh11" depart="21.00" departLane="711421326#4_0" departPos="5.10" departSpeed="27.78" departDelay="0.98" arrival="211.00" arrivalLane="24584390#1_0" arrivalPos="72.57" arrivalSpeed="21.81" duration="190.00" routeLength="3205.68" waitingTime="2.00" waitingCount="1" stopTime="0.00" timeLoss="58.00" rerouteNo="1" devices="tripinfo_veh11 routing_veh11" vType="veh_passenger" speedFactor="1.03" vaporized=""/>
    <tripinfo id="veh25" depart="46.00" departLane="24583495#2_0" departPos="2.10" departSpeed="12.12" departDelay="0.50" arrival="214.00" arrivalLane="447141151#2_0" arrivalPos="33.93" arrivalSpeed="23.92" duration="168.00" routeLength="2702.47" waitingTime="0.00" waitingCount="0" stopTime="0.00" timeLoss="38.05" rerouteNo="1" devices="tripinfo_veh25 routing_veh25" vType="veh_passenger" speedFactor="0.87" vaporized=""/>
    <tripinfo id="veh6" depart="11.00" departLane="-1115964325_0" departPos="5.10" departSpeed="14.53" departDelay="0.08" arrival="232.00" arrivalLane="-577982260#1_0" arrivalPos="32.88" arrivalSpeed="13.48" duration="221.00" routeLength="3515.66" waitingTime="0.00" waitingCount="0" stopTime="0.00" timeLoss="70.20" rerouteNo="1" devices="tripinfo_veh6 routing_veh6" vType="veh_passenger" speedFactor="1.05" vaporized=""/>
    <tripinfo id="veh14" depart="26.00" departLane="1271156421#4_1" departPos="5.10" departSpeed="13.71" departDelay="0.52" arrival="245.00" arrivalLane="24583590#2_0" arrivalPos="107.99" arrivalSpeed="12.65" duration="219.00" routeLength="3902.28" waitingTime="0.00" waitingCount="0" stopTime="0.00" timeLoss="62.89" rerouteNo="1" devices="tripinfo_veh14 routing_veh14" vType="veh_passenger" speedFactor="0.99" vaporized=""/>
    <tripinfo id="veh20" depart="37.00" departLane="1271156412#0_0" departPos="5.10" departSpeed="13.89" departDelay="0.60" arrival="250.00" arrivalLane="-686673952#1_0" arrivalPos="54.48" arrivalSpeed="13.30" duration="213.00" routeLength="3453.72" waitingTime="12.00" waitingCount="1" stopTime="0.00" timeLoss="70.81" rerouteNo="1" devices="tripinfo_veh20 routing_veh20" vType="veh_passenger" speedFactor="1.02" vaporized=""/>
    <tripinfo id="veh17" depart="31.00" departLane="-1438583474#2_0" departPos="5.10" departSpeed="13.08" departDelay="0.06" arrival="255.00" arrivalLane="-80926768#0_0" arrivalPos="820.52" arrivalSpeed="12.51" duration="224.00" routeLength="2886.01" waitingTime="0.00" waitingCount="0" stopTime="0.00" timeLoss="28.87" rerouteNo="1" devices="tripinfo_veh17 routing_veh17" vType="veh_passenger" speedFactor="0.94" vaporized=""/>
    <tripinfo id="pt_bus_890:1.0" depart="131.00" departLane="760536610#1_5" departPos="12.10" departSpeed="27.78" departDelay="0.00" arrival="262.00" arrivalLane="782774056#1_1" arrivalPos="19.33" arrivalSpeed="7.37" duration="131.00" routeLength="1805.10" waitingTime="0.00" waitingCount="0" stopTime="0.00" timeLoss="58.82" rerouteNo="0" devices="tripinfo_pt_bus_890:1.0" vType="pt_bus" speedFactor="1.00" vaporized=""/>
    <tripinfo id="veh19" depart="35.00" departLane="24584424#0_0" departPos="5.10" departSpeed="13.89" departDelay="0.42" arrival="264.00" arrivalLane="116046167#6_0" arrivalPos="43.17" arrivalSpeed="14.96" duration="229.00" routeLength="4076.03" waitingTime="0.00" waitingCount="0" stopTime="0.00" timeLoss="78.07" rerouteNo="1" devices="tripinfo_veh19 routing_veh19" vType="veh_passenger" speedFactor="1.16" vaporized=""/>
    <tripinfo id="veh12" depart="22.00" departLane="665150699#0_1" departPos="5.10" departSpeed="27.78" departDelay="0.16" arrival="267.00" arrivalLane="563679836#11_0" arrivalPos="9.74" arrivalSpeed="14.13" duration="245.00" routeLength="3463.20" waitingTime="33.00" waitingCount="2" stopTime="0.00" timeLoss="103.58" rerouteNo="1" devices="tripinfo_veh12 routing_veh12" vType="veh_passenger" speedFactor="1.05" vaporized=""/>
    <tripinfo id="veh27" depart="50.00" departLane="1072954052#0_0" departPos="5.10" departSpeed="13.18" departDelay="0.86" arrival="272.00" arrivalLane="-998790358#16_1" arrivalPos="17.79" arrivalSpeed="10.81" duration="222.00" routeLength="3459.77" waitingTime="0.00" waitingCount="0" stopTime="0.00" timeLoss="51.04" rerouteNo="1" devices="tripinfo_veh27 routing_veh27" vType="veh_passenger" speedFactor="0.95" vaporized=""/>
    <tripinfo id="veh23" depart="42.00" departLane="-24584420#5_0" departPos="5.10" departSpeed="12.36" departDelay="0.14" arrival="275.00" arrivalLane="563679836#10_0" arrivalPos="0.20" arrivalSpeed="12.24" duration="233.00" routeLength="3615.39" waitingTime="0.00" waitingCount="0" stopTime="0.00" timeLoss="54.69" rerouteNo="1" devices="tripinfo_veh23 routing_veh23" vType="veh_passenger" speedFactor="0.89" vaporized=""/>
    <tripinfo id="veh21" depart="39.00" departLane="-998790356#7_0" departPos="5.10" departSpeed="27.78" departDelay="0.78" arrival="284.00" arrivalLane="80950089_0" arrivalPos="644.17" arrivalSpeed="13.37" duration="245.00" routeLength="4225.68" waitingTime="0.00" waitingCount="0" stopTime="0.00" timeLoss="60.77" rerouteNo="1" devices="tripinfo_veh21 routing_veh21" vType="veh_passenger" speedFactor="1.01" vaporized=""/>
    <tripinfo id="pt_bus_680:1.0" depart="165.00" departLane="708474897#0_0" departPos="12.10" departSpeed="27.78" departDelay="0.00" arrival="285.00" arrivalLane="-782774057#0_0" arrivalPos="524.47" arrivalSpeed="21.87" duration="120.00" routeLength="1280.15" waitingTime="0.00" waitingCount="0" stopTime="46.00" timeLoss="11.15" rerouteNo="0" devices="tripinfo_pt_bus_680:1.0" vType="pt_bus" speedFactor="1.00" vaporized=""/>
    <tripinfo id="veh2" depart="4.00" departLane="563679821#1_0" departPos="5.10" departSpeed="15.67" departDelay="0.36" arrival="292.00" arrivalLane="44277694#4_0" arrivalPos="47.54" arrivalSpeed="13.05" duration="288.00" routeLength="4529.60" waitingTime="0.00" waitingCount="0" stopTime="0.00" timeLoss="70.91" rerouteNo="1" devices="tripinfo_veh2 routing_veh2" vType="veh_passenger" speedFactor="1.01" vaporized=""/>
    <tripinfo id="pt_bus_580:0.0" depart="201.00" departLane="714990514#0_0" departPos="12.10" departSpeed="22.22" departDelay="0.00" arrival="302.00" arrivalLane="570413587#1_0" arrivalPos="166.19" arrivalSpeed="11.49" duration="101.00" routeLength="686.22" waitingTime="0.00" waitingCount="0" stopTime="44.00" timeLoss="16.09" rerouteNo="0" devices="tripinfo_pt_bus_580:0.0" vType="pt_bus" speedFactor="1.00" vaporized=""/>
    <tripinfo id="veh1" depart="2.00" departLane="-998790358#17_0" departPos="3.41" departSpeed="13.03" departDelay="0.18" arrival="328.00" arrivalLane="-782774057#0_0" arrivalPos="524.47" arrivalSpeed="20.62" duration="326.00" routeLength="5023.86" waitingTime="22.00" waitingCount="1" stopTime="0.00" timeLoss="98.95" rerouteNo="1" devices="tripinfo_veh1 routing_veh1" vType="veh_passenger" speedFactor="0.94" vaporized=""/>
    <tripinfo id="veh4" depart="8.00" departLane="1537111946#1_0" departPos="5.10" departSpeed="13.89" departDelay="0.72" arrival="333.00" arrivalLane="-1074157512#0_0" arrivalPos="247.52" arrivalSpeed="21.83" duration="325.00" routeLength="5297.60" waitingTime="0.00" waitingCount="0" stopTime="0.00" timeLoss="99.51" rerouteNo="1" devices="tripinfo_veh4 routing_veh4" vType="veh_passenger" speedFactor="1.03" vaporized=""/>
    <tripinfo id="veh24" depart="44.00" departLane="998790358#14_1" departPos="5.10" departSpeed="11.47" departDelay="0.32" arrival="339.00" arrivalLane="24584512#2_0" arrivalPos="178.20" arrivalSpeed="10.95" duration="295.00" routeLength="4268.11" waitingTime="0.00" waitingCount="0" stopTime="0.00" timeLoss="60.04" rerouteNo="1" devices="tripinfo_veh24 routing_veh24" vType="veh_passenger" speedFactor="0.83" vaporized=""/>
    <tripinfo id="pt_bus_540:0.0" depart="207.00" departLane="714990514#0_0" departPos="12.10" departSpeed="22.22" departDelay="0.00" arrival="340.00" arrivalLane="570413587#1_0" arrivalPos="166.19" arrivalSpeed="11.01" duration="133.00" routeLength="686.22" waitingTime="37.00" waitingCount="1" stopTime="31.00" timeLoss="57.26" rerouteNo="0" devices="tripinfo_pt_bus_540:0.0" vType="pt_bus" speedFactor="1.00" vaporized=""/>
    <tripinfo id="veh29" depart="53.00" departLane="717907807#2_0" departPos="5.10" departSpeed="25.87" departDelay="0.22" arrival="379.00" arrivalLane="1075052926#1_0" arrivalPos="194.54" arrivalSpeed="12.88" duration="326.00" routeLength="5038.26" waitingTime="0.00" waitingCount="0" stopTime="0.00" timeLoss="60.55" rerouteNo="1" devices="tripinfo_veh29 routing_veh29" vType="veh_passenger" speedFactor="0.93" vaporized=""/>
    <tripinfo id="pt_bus_282:0.0" depart="21.00" departLane="581245363#4_0" departPos="12.10" departSpeed="3.70" departDelay="0.00" arrival="409.00" arrivalLane="714990513#3_0" arrivalPos="104.70" arrivalSpeed="10.79" duration="388.00" routeLength="1322.70" waitingTime="129.00" waitingCount="6" stopTime="90.00" timeLoss="206.82" rerouteNo="0" devices="tripinfo_pt_bus_282:0.0" vType="pt_bus" speedFactor="1.00" vaporized=""/>
    <tripinfo id="pt_bus_480:1.0" depart="389.00" departLane="714990514#0_0" departPos="12.10" departSpeed="22.22" departDelay="0.00" arrival="488.00" arrivalLane="570413587#1_0" arrivalPos="166.19" arrivalSpeed="11.93" duration="99.00" routeLength="686.22" waitingTime="0.00" waitingCount="0" stopTime="42.00" timeLoss="15.56" rerouteNo="0" devices="tripinfo_pt_bus_480:1.0" vType="pt_bus" speedFactor="1.00" vaporized=""/>
    <tripinfo id="pt_bus_894:0.0" depart="483.00" departLane="116046169#3_0" departPos="12.10" departSpeed="2.90" departDelay="0.00" arrival="530.00" arrivalLane="116046169#3_0" arrivalPos="84.06" arrivalSpeed="11.28" duration="47.00" routeLength="71.96" waitingTime="0.00" waitingCount="0" stopTime="32.00" timeLoss="3.98" rerouteNo="0" devices="tripinfo_pt_bus_894:0.0" vType="pt_bus" speedFactor="1.00" vaporized=""/>
    <tripinfo id="pt_bus_281:1.0" depart="15.00" departLane="581245363#4_0" departPos="12.10" departSpeed="22.22" departDelay="0.00" arrival="564.00" arrivalLane="997761545_0" arrivalPos="42.21" arrivalSpeed="18.76" duration="549.00" routeLength="3503.38" waitingTime="37.00" waitingCount="2" stopTime="185.00" timeLoss="151.07" rerouteNo="0" devices="tripinfo_pt_bus_281:1.0" vType="pt_bus" speedFactor="1.00" vaporized=""/>
    <tripinfo id="pt_bus_944:0.0" depart="485.00" departLane="714990514#0_0" departPos="12.10" departSpeed="22.22" departDelay="0.00" arrival="585.00" arrivalLane="570413587#1_0" arrivalPos="166.19" arrivalSpeed="12.33" duration="100.00" routeLength="686.22" waitingTime="0.00" waitingCount="0" stopTime="44.00" timeLoss="13.90" rerouteNo="0" devices="tripinfo_pt_bus_944:0.0" vType="pt_bus" speedFactor="1.00" vaporized=""/>
    <tripinfo id="pt_bus_706A:0.0" depart="26.00" departLane="581245363#4_0" departPos="12.10" departSpeed="4.08" departDelay="0.00" arrival="624.00" arrivalLane="998790356#8_0" arrivalPos="5.24" arrivalSpeed="13.40" duration="598.00" routeLength="3278.86" waitingTime="154.00" waitingCount="7" stopTime="118.00" timeLoss="297.64" rerouteNo="0" devices="tripinfo_pt_bus_706A:0.0" vType="pt_bus" speedFactor="1.00" vaporized=""/>
    <tripinfo id="pt_bus_810:1.0" depart="517.00" departLane="714990514#0_0" departPos="12.10" departSpeed="22.22" departDelay="0.00" arrival="629.00" arrivalLane="570413587#1_0" arrivalPos="166.19" arrivalSpeed="11.54" duration="112.00" routeLength="686.22" waitingTime="16.00" waitingCount="1" stopTime="30.00" timeLoss="42.33" rerouteNo="0" devices="tripinfo_pt_bus_810:1.0" vType="pt_bus" speedFactor="1.00" vaporized=""/>
    <tripinfo id="pt_bus_390:1.0" depart="535.00" departLane="714990514#0_0" departPos="12.10" departSpeed="22.22" departDelay="0.00" arrival="668.00" arrivalLane="570413587#1_0" arrivalPos="166.19" arrivalSpeed="11.64" duration="133.00" routeLength="686.22" waitingTime="31.00" waitingCount="2" stopTime="29.00" timeLoss="64.62" rerouteNo="0" devices="tripinfo_pt_bus_390:1.0" vType="pt_bus" speedFactor="1.00" vaporized=""/>
    <tripinfo id="pt_bus_890:2.0" depart="132.00" departLane="581245363#4_0" departPos="12.10" departSpeed="0.10" departDelay="0.00" arrival="812.00" arrivalLane="758753883_0" arrivalPos="143.69" arrivalSpeed="21.93" duration="680.00" routeLength="3314.61" waitingTime="237.00" waitingCount="10" stopTime="115.00" timeLoss="392.65" rerouteNo="0" devices="tripinfo_pt_bus_890:2.0" vType="pt_bus" speedFactor="1.00" vaporized=""/>
    <tripinfo id="pt_bus_680:0.0" depart="138.00" departLane="581245363#4_0" departPos="12.10" departSpeed="1.66" departDelay="0.00" arrival="859.00" arrivalLane="24584377#10_0" arrivalPos="7.26" arrivalSpeed="11.59" duration="721.00" routeLength="2038.53" waitingTime="313.00" waitingCount="10" stopTime="142.00" timeLoss="445.02" rerouteNo="0" devices="tripinfo_pt_bus_680:0.0" vType="pt_bus" speedFactor="1.00" vaporized=""/>
    <tripinfo id="pt_bus_480:0.0" depart="227.00" departLane="581245363#4_0" departPos="12.10" departSpeed="2.81" departDelay="0.00" arrival="898.00" arrivalLane="24584377#10_0" arrivalPos="7.26" arrivalSpeed="12.36" duration="671.00" routeLength="2038.53" waitingTime="322.00" waitingCount="13" stopTime="91.00" timeLoss="456.06" rerouteNo="0" devices="tripinfo_pt_bus_480:0.0" vType="pt_bus" speedFactor="1.00" vaporized=""/>
    <tripinfo id="pt_bus_100:1.0" depart="371.00" departLane="24577478#0_0" departPos="12.10" departSpeed="27.78" departDelay="0.00" arrival="940.00" arrivalLane="24584398#4_0" arrivalPos="18.26" arrivalSpeed="1.02" duration="569.00" routeLength="3347.52" waitingTime="21.00" waitingCount="3" stopTime="239.00" timeLoss="118.85" rerouteNo="0" devices="tripinfo_pt_bus_100:1.0" vType="pt_bus" speedFactor="1.00" vaporized=""/>
    <tripinfo id="pt_bus_408E:0.0" depart="263.00" departLane="581245363#4_0" departPos="12.10" departSpeed="2.42" departDelay="1.00" arrival="958.00" arrivalLane="24584377#10_0" arrivalPos="7.26" arrivalSpeed="11.63" duration="695.00" routeLength="2038.53" waitingTime="301.00" waitingCount="11" stopTime="133.00" timeLoss="427.72" rerouteNo="0" devices="tripinfo_pt_bus_408E:0.0" vType="pt_bus" speedFactor="1.00" vaporized=""/>
    <tripinfo id="pt_bus_890:0.0" depart="52.00" departLane="581245363#4_0" departPos="12.10" departSpeed="0.00" departDelay="0.00" arrival="1014.00" arrivalLane="-1053851218_0" arrivalPos="237.13" arrivalSpeed="21.87" duration="962.00" routeLength="5221.63" waitingTime="214.00" waitingCount="11" stopTime="246.00" timeLoss="411.10" rerouteNo="0" devices="tripinfo_pt_bus_890:0.0" vType="pt_bus" speedFactor="1.00" vaporized=""/>
    <tripinfo id="pt_bus_391:1.0" depart="484.00" departLane="998790356#0_0" departPos="12.10" departSpeed="27.78" departDelay="0.00" arrival="1034.00" arrivalLane="570413587#1_0" arrivalPos="166.19" arrivalSpeed="12.59" duration="550.00" routeLength="4737.89" waitingTime="3.00" waitingCount="2" stopTime="156.00" timeLoss="149.83" rerouteNo="0" devices="tripinfo_pt_bus_391:1.0" vType="pt_bus" speedFactor="1.00" vaporized=""/>
    <tripinfo id="pt_bus_390:0.0" depart="370.00" departLane="581245363#4_0" departPos="12.10" departSpeed="3.93" departDelay="3.00" arrival="1037.00" arrivalLane="24584377#10_0" arrivalPos="7.26" arrivalSpeed="11.66" duration="667.00" routeLength="2038.53" waitingTime="279.00" waitingCount="11" stopTime="130.00" timeLoss="409.52" rerouteNo="0" devices="tripinfo_pt_bus_390:0.0" vType="pt_bus" speedFactor="1.00" vaporized=""/>
    <tripinfo id="pt_bus_370:0.0" depart="488.00" departLane="581245363#4_0" departPos="12.10" departSpeed="2.66" departDelay="1.00" arrival="1187.00" arrivalLane="24584377#10_0" arrivalPos="7.26" arrivalSpeed="11.87" duration="699.00" routeLength="2038.53" waitingTime="314.00" waitingCount="13" stopTime="124.00" timeLoss="442.34" rerouteNo="0" devices="tripinfo_pt_bus_370:0.0" vType="pt_bus" speedFactor="1.00" vaporized=""/>
    <tripinfo id="pt_bus_349:1.0" depart="574.00" departLane="563974735#0_0" departPos="12.10" departSpeed="27.78" departDelay="0.00" arrival="1220.00" arrivalLane="570413587#1_0" arrivalPos="166.19" arrivalSpeed="11.40" duration="646.00" routeLength="3869.73" waitingTime="2.00" waitingCount="2" stopTime="298.00" timeLoss="101.59" rerouteNo="0" devices="tripinfo_pt_bus_349:1.0" vType="pt_bus" speedFactor="1.00" vaporized=""/>
    <tripinfo id="pt_bus_378:1.0" depart="583.00" departLane="563974735#0_0" departPos="12.10" departSpeed="27.78" departDelay="0.00" arrival="1262.00" arrivalLane="570413587#1_0" arrivalPos="166.19" arrivalSpeed="12.07" duration="679.00" routeLength="3869.73" waitingTime="76.00" waitingCount="3" stopTime="241.00" timeLoss="195.83" rerouteNo="0" devices="tripinfo_pt_bus_378:1.0" vType="pt_bus" speedFactor="1.00" vaporized=""/>
    <tripinfo id="pt_bus_944:1.0" depart="1016.00" departLane="581245363#4_0" departPos="12.10" departSpeed="4.63" departDelay="3.00" arrival="1430.00" arrivalLane="714990513#3_0" arrivalPos="104.70" arrivalSpeed="21.81" duration="414.00" routeLength="1322.70" waitingTime="173.00" waitingCount="7" stopTime="60.00" timeLoss="272.97" rerouteNo="0" devices="tripinfo_pt_bus_944:1.0" vType="pt_bus" speedFactor="1.00" vaporized=""/>
    <tripinfo id="pt_bus_391:0.0" depart="332.00" departLane="581245363#4_0" departPos="12.10" departSpeed="3.31" departDelay="2.00" arrival="1456.00" arrivalLane="998790358#18_0" arrivalPos="53.69" arrivalSpeed="13.37" duration="1124.00" routeLength="6069.38" waitingTime="270.00" waitingCount="13" stopTime="277.00" timeLoss="487.69" rerouteNo="0" devices="tripinfo_pt_bus_391:0.0" vType="pt_bus" speedFactor="1.00" vaporized=""/>
    <tripinfo id="pt_bus_580:1.0" depart="905.00" departLane="581245363#4_0" departPos="12.10" departSpeed="3.46" departDelay="6.00" arrival="1466.00" arrivalLane="447141152#1_0" arrivalPos="13.80" arrivalSpeed="12.24" duration="561.00" routeLength="2078.84" waitingTime="197.00" waitingCount="9" stopTime="110.00" timeLoss="327.25" rerouteNo="0" devices="tripinfo_pt_bus_580:1.0" vType="pt_bus" speedFactor="1.00" vaporized=""/>
    <tripinfo id="pt_bus_810:0.0" depart="1021.00" departLane="581245363#4_0" departPos="12.10" departSpeed="2.86" departDelay="2.00" arrival="1469.00" arrivalLane="714990513#3_0" arrivalPos="104.70" arrivalSpeed="22.09" duration="448.00" routeLength="1322.70" waitingTime="206.00" waitingCount="8" stopTime="59.00" timeLoss="305.21" rerouteNo="0" devices="tripinfo_pt_bus_810:0.0" vType="pt_bus" speedFactor="1.00" vaporized=""/>
    <tripinfo id="pt_bus_378:0.0" depart="446.00" departLane="581245363#4_0" departPos="12.10" departSpeed="4.29" departDelay="3.00" arrival="1496.00" arrivalLane="563679820#6_0" arrivalPos="198.80" arrivalSpeed="27.65" duration="1050.00" routeLength="4609.93" waitingTime="360.00" waitingCount="11" stopTime="222.00" timeLoss="548.55" rerouteNo="0" devices="tripinfo_pt_bus_378:0.0" vType="pt_bus" speedFactor="1.00" vaporized=""/>
    <tripinfo id="pt_bus_100:0.0" depart="901.00" departLane="581245363#4_0" departPos="12.10" departSpeed="4.51" departDelay="71.00" arrival="1619.00" arrivalLane="447141151#7_0" arrivalPos="116.76" arrivalSpeed="27.55" duration="718.00" routeLength="3355.16" waitingTime="174.00" waitingCount="8" stopTime="186.00" timeLoss="328.35" rerouteNo="0" devices="tripinfo_pt_bus_100:0.0" vType="pt_bus" speedFactor="1.00" vaporized=""/>
    <tripinfo id="pt_bus_349:0.0" depart="678.00" departLane="581245363#4_0" departPos="12.10" departSpeed="3.42" departDelay="6.00" arrival="1661.00" arrivalLane="563679820#6_0" arrivalPos="198.80" arrivalSpeed="27.56" duration="983.00" routeLength="4611.09" waitingTime="285.00" waitingCount="10" stopTime="245.00" timeLoss="459.74" rerouteNo="0" devices="tripinfo_pt_bus_349:0.0" vType="pt_bus" speedFactor="1.00" vaporized=""/>
    <tripinfo id="pt_bus_270:0.0" depart="750.00" departLane="581245363#4_0" departPos="12.10" departSpeed="3.53" departDelay="1.00" arrival="1728.00" arrivalLane="447141139_0" arrivalPos="29.51" arrivalSpeed="14.12" duration="978.00" routeLength="8896.88" waitingTime="172.00" waitingCount="6" stopTime="130.00" timeLoss="425.59" rerouteNo="0" devices="tripinfo_pt_bus_270:0.0" vType="pt_bus" speedFactor="1.00" vaporized=""/>