<?xml version="1.0" encoding="UTF-8"?>

<!-- generated on 2026-07-12T00:34:58.740379+05:30 by Eclipse SUMO sumo 1.27.1
<sumoConfiguration xmlns:xsi="http://www.w3.org/2001/XMLSchema-instance" xsi:noNamespaceSchemaLocation="http://sumo.dlr.de/xsd/sumoConfiguration.xsd">

    <input>
        <net-file value="C:\Users\sudha\2026-07-12-00-34-41\osm.net.xml.gz"/>
        <route-files value="C:\Users\sudha\2026-07-12-00-34-41\trips.trips.xml"/>
        <additional-files value="C:\Users\sudha\2026-07-12-00-34-41\osm_stops.add.xml"/>
    </input>

    <output>
        <vehroute-output value="C:\Users\sudha\2026-07-12-00-34-41\vehroutes.xml"/>
        <stop-output value="C:\Users\sudha\2026-07-12-00-34-41\stopinfos.xml"/>
    </output>

    <time>
        <begin value="0.0"/>
    </time>

    <processing>
        <ignore-route-errors value="true"/>
        <time-to-teleport.disconnected value="0"/>
        <default.departspeed value="0"/>
    </processing>

    <routing>
        <device.rerouting.adaptation-interval value="0"/>
    </routing>

    <report>
        <aggregate-warnings value="5"/>
        <error-log value="C:\Users\sudha\2026-07-12-00-34-41\trips.trips.xml.errorlog"/>
        <no-step-log value="true"/>
    </report>

</sumoConfiguration>
-->

<routes xmlns:xsi="http://www.w3.org/2001/XMLSchema-instance" xsi:noNamespaceSchemaLocation="http://sumo.dlr.de/xsd/routes_file.xsd">
    <vehicle id="0_bus_281:0" type="pt_bus" depart="3.00" departLane="0" arrival="60.00">
        <route edges="570413587#1"/>
        <stop busStop="5483954444" duration="30.00"/>
    </vehicle>

    <vehicle id="12_bus_680:1" type="pt_bus" depart="165.00" departLane="0" arrival="287.00">
        <route edges="708474897#0 708474897#1 -782774056#1 -782774057#1 -782774057#0"/>
        <stop busStop="5483331671" duration="30.00"/>
    </vehicle>

    <vehicle id="13_bus_580:0" type="pt_bus" depart="201.00" departLane="0" arrival="300.00">
        <route edges="714990514#0 714990514#1 24584398#0 24584398#1 24584398#2 24584398#3 24584398#4 570413587#0 570413587#1"/>
        <stop busStop="5483954444" duration="30.00"/>
    </vehicle>

    <vehicle id="9_bus_890:1" type="pt_bus" depart="131.00" departLane="5" arrival="321.00">
        <route edges="760536610#1 -1307222666#1 782774061#13 1438583475#0 1438583475#1 1438583475#2 1438583475#3 1438583475#4 -80921410#2 -80921410#1 -80921410#0 24618002#5 24618002#6 24618002#7 24618002#1 -1474236997#2 -1474236997#1 -1474236997#0 -1474236998 -708488754#5 -708488754#4 710645768 -782774056#1 782774056#1"/>
    </vehicle>

    <vehicle id="14_bus_540:0" type="pt_bus" depart="207.00" departLane="0" arrival="341.00">
        <route edges="714990514#0 714990514#1 24584398#0 24584398#1 24584398#2 24584398#3 24584398#4 570413587#0 570413587#1"/>
        <stop busStop="5483954444" duration="30.00"/>
    </vehicle>

    <vehicle id="2_bus_282:0" type="pt_bus" depart="21.00" departLane="0" arrival="409.00">
        <route edges="581245363#4 570413588#0 570413588#1 722082951 24584398#0 24584398#1 24584398#2 24584398#3 24584398#4 570413587#0 570413587#1 581245363#4 570413588#0 570413588#1 714990513#0 714990513#1 714990513#2 714990513#3"/>
        <stop busStop="5561975423" duration="30.00"/>
        <stop busStop="5483332064" duration="30.00"/>
        <stop busStop="7116238187" duration="30.00"/>
    </vehicle>

    <vehicle id="26_bus_480:1" type="pt_bus" depart="389.00" departLane="0" arrival="488.00">
        <route edges="714990514#0 714990514#1 24584398#0 24584398#1 24584398#2 24584398#3 24584398#4 570413587#0 570413587#1"/>
        <stop busStop="5483954444" duration="30.00"/>
    </vehicle>

    <vehicle id="32_bus_894:0" type="pt_bus" depart="483.00" departLane="0" arrival="529.00">
        <route edges="116046169#3"/>
        <stop busStop="971653361" duration="30.00"/>
    </vehicle>

    <vehicle id="1_bus_281:1" type="pt_bus" depart="15.00" departLane="0" arrival="563.00">
        <route edges="581245363#4 570413588#0 570413588#1 722082951 24584398#0 24584398#1 24584398#2 24584398#3 24584398#4 570413587#0 570413587#1 581245363#4 570413588#0 570413588#1 714990513#0 714990513#1 714990513#2 714990513#3 570413589#0 570413589#1 570413589#2 447141139 1425368050#0 1425368050#1 447141140 24584377#0 24584377#1 24584377#2 24584377#3 24584377#4 24584377#5 24584377#6 24584377#7 24584377#8 24584377#10 447141152#0 447141152#1 570526053 447141150#0 447141150#1 554665390 24583321#0 24583321#1 24583321#2 994825989 997761552#0 997761552#1 -24583487#14 -24583487#13 -24583487#12 -24583487#11 -24583487#10 -24583487#9 -24583487#8 -24583487#6 -24583487#5 -24583487#3 -24583487#2 -24583487#1 -24583487#0 1066619121#0 1066619121#1 997761548#0 997761548#1 997761545-AddedOnRampEdge 997761545"/>
        <stop busStop="5561975423" duration="30.00"/>
        <stop busStop="5483332064" duration="30.00"/>
        <stop busStop="7116238187" duration="30.00"/>
        <stop busStop="5346174186" duration="30.00"/>
        <stop busStop="5483331673" duration="30.00"/>
        <stop busStop="-9182102064" duration="30.00"/>
    </vehicle>

    <vehicle id="34_bus_944:0" type="pt_bus" depart="485.00" departLane="0" arrival="586.00">
        <route edges="714990514#0 714990514#1 24584398#0 24584398#1 24584398#2 24584398#3 24584398#4 570413587#0 570413587#1"/>
        <stop busStop="5483954444" duration="30.00"/>
    </vehicle>

    <vehicle id="3_bus_706A:0" type="pt_bus" depart="26.00" departLane="0" arrival="623.00">
        <route edges="581245363#4 570413588#0 570413588#1 722082951 24584398#0 24584398#1 24584398#2 24584398#3 24584398#4 570413587#0 570413587#1 581245363#4 570413588#0 570413588#1 714990513#0 714990513#1 714990513#2 714990513#3 570413589#0 570413589#1 570413589#2 447141139 1425368050#0 1425368050#1 447141140 722082949#0 722082949#1 447141153#0 447141153#1 24584389#0 24584389#1 1066625119#0 1066625119#1 1066625119#2 1066625119#3 717907819#4 717907819#5 717907818#0 717907818#1 717907817#0 717907817#1 717907817#2 717907817#3 717907817#4 717907817#5 24577101#1 722082948#0 722082948#1 447141145 998790362#0 998790362#1 1327208477#0 1327208477#1 1327208477#2 1493678699#0 1493678699#1 24577106#0 24577106#1 24577106#2 24577106#3 24577106#4 24577106#5 998790361 447141132#0 447141132#1 447141132#2 447141132#3 447141132#4 596373329 562340239 998790359 998790356#0 998790356#1 998790356#2 998790356#3 998790356#4 998790356#5 998790356#6 998790356#7 998790356#8"/>
        <stop busStop="5561975423" duration="30.00"/>
        <stop busStop="5483332064" duration="30.00"/>
        <stop busStop="7116238187" duration="30.00"/>
        <stop busStop="5345535254" duration="30.00"/>
    </vehicle>

    <vehicle id="37_bus_810:1" type="pt_bus" depart="517.00" departLane="0" arrival="629.00">
        <route edges="714990514#0 714990514#1 24584398#0 24584398#1 24584398#2 24584398#3 24584398#4 570413587#0 570413587#1"/>
        <stop busStop="5483954444" duration="30.00"/>
    </vehicle>

    <vehicle id="38_bus_390:1" type="pt_bus" depart="535.00" departLane="0" arrival="668.00">
        <route edges="714990514#0 714990514#1 24584398#0 24584398#1 24584398#2 24584398#3 24584398#4 570413587#0 570413587#1"/>
        <stop busStop="5483954444" duration="30.00"/>
    </vehicle>

    <vehicle id="10_bus_890:2" type="pt_bus" depart="132.00" departLane="0" arrival="813.00">
        <route edges="581245363#4 570413588#0 570413588#1 722082951 24584398#0 24584398#1 24584398#2 24584398#3 24584398#4 570413587#0 570413587#1 581245363#4 570413588#0 570413588#1 714990513#0 714990513#1 714990513#2 714990513#3 570413589#0 570413589#1 570413589#2 447141139 1425368050#0 1425368050#1 447141140 24584377#0 24584377#1 24584377#2 24584377#3 24584377#4 24584377#5 24584377#6 24584377#7 24584377#8 24584377#10 447141152#0 447141152#1 570526053 447141150#0 447141150#1 554665390 24583321#0 24583321#1 24583321#2 994825989 997761552#0 997761552#1 994825990#0 994825990#1 994825990#2 994825990#3 447141148 572511731 447141147#0 447141147#1 1493678697 758753883"/>
        <stop busStop="5561975423" duration="30.00"/>
        <stop busStop="5483332064" duration="30.00"/>
        <stop busStop="5483331673" duration="30.00"/>
    </vehicle>

    <vehicle id="11_bus_680:0" type="pt_bus" depart="138.00" departLane="0" arrival="859.00">
        <route edges="581245363#4 570413588#0 570413588#1 722082951 24584398#0 24584398#1 24584398#2 24584398#3 24584398#4 570413587#0 570413587#1 581245363#4 570413588#0 570413588#1 714990513#0 714990513#1 714990513#2 714990513#3 570413589#0 570413589#1 570413589#2 447141139 1425368050#0 1425368050#1 447141140 24584377#0 24584377#1 24584377#2 24584377#3 24584377#4 24584377#5 24584377#6 24584377#7 24584377#8 24584377#10"/>
        <stop busStop="5561975423" duration="30.00"/>
        <stop busStop="5483332064" duration="30.00"/>
        <stop busStop="6225764792" duration="30.00"/>
        <stop busStop="5346174186" duration="30.00"/>
    </vehicle>

    <vehicle id="15_bus_480:0" type="pt_bus" depart="227.00" departLane="0" arrival="899.00">
        <route edges="581245363#4 570413588#0 570413588#1 722082951 24584398#0 24584398#1 24584398#2 24584398#3 24584398#4 570413587#0 570413587#1 581245363#4 570413588#0 570413588#1 714990513#0 714990513#1 714990513#2 714990513#3 570413589#0 570413589#1 570413589#2 447141139 1425368050#0 1425368050#1 447141140 24584377#0 24584377#1 24584377#2 24584377#3 24584377#4 24584377#5 24584377#6 24584377#7 24584377#8 24584377#10"/>
        <stop busStop="5561975423" duration="30.00"/>
        <stop busStop="5483332064" duration="30.00"/>
        <stop busStop="5346174186" duration="30.00"/>
    </vehicle>

    <vehicle id="24_bus_100:1" type="pt_bus" depart="371.00" departLane="0" arrival="940.00">
        <route edges="24577478#0 24577478#0-AddedOffRampEdge 24577478#1 996679779#1 996679779#2 996679779#3 996679779#4 996679779#5 996679779#6 996679779#7 996679779#8 447141147#0 447141147#1 1493678697 24583324#0 24583324#1 590609994#0 590609994#1 717907807#0 717907807#1 717907807#2 717907807#3 717907807#4 717907807#6 24583320#0 24583320#1 570526051 447141152#0 447141152#1 48964552#0 48964552#1 48964552#2 48964552#3 48964552#5 48964552#6 48964552#7 1459217598 24584378#1 24584378#2 24584378#3 24584378#4 24584378#6 24584378#8 24584378#9 24584378#10 24584378#11 447141140 722082949#0 722082949#1 447141153#0 447141153#1 24584389#0 24584389#1 24584389#2 24584389#3 714990514#0 714990514#1 24584398#0 24584398#1 24584398#2 24584398#3 24584398#4"/>
        <stop busStop="6404197725" duration="30.00"/>
        <stop busStop="5637100894" duration="30.00"/>
        <stop busStop="5637101391" duration="30.00"/>
        <stop busStop="5338584991" duration="30.00"/>
        <stop busStop="5338584905" duration="30.00"/>
        <stop busStop="6225480474" duration="30.00"/>
        <stop busStop="6225482595" duration="30.00"/>
        <stop busStop="4156355793" duration="30.00"/>
    </vehicle>

    <vehicle id="16_bus_408E:0" type="pt_bus" depart="262.00" departLane="0" arrival="958.00">
        <route edges="581245363#4 570413588#0 570413588#1 722082951 24584398#0 24584398#1 24584398#2 24584398#3 24584398#4 570413587#0 570413587#1 581245363#4 570413588#0 570413588#1 714990513#0 714990513#1 714990513#2 714990513#3 570413589#0 570413589#1 570413589#2 447141139 1425368050#0 1425368050#1 447141140 24584377#0 24584377#1 24584377#2 24584377#3 24584377#4 24584377#5 24584377#6 24584377#7 24584377#8 24584377#10"/>
        <stop busStop="5561975423" duration="30.00"/>
        <stop busStop="5483332064" duration="30.00"/>
        <stop busStop="7116238187" duration="30.00"/>
        <stop busStop="5346174186" duration="30.00"/>
    </vehicle>

    <vehicle id="4_bus_890:0" type="pt_bus" depart="52.00" departLane="0" arrival="1014.00">
        <route edges="581245363#4 570413588#0 570413588#1 722082951 24584398#0 24584398#1 24584398#2 24584398#3 24584398#4 570413587#0 570413587#1 581245363#4 570413588#0 570413588#1 714990513#0 714990513#1 714990513#2 714990513#3 570413589#0 570413589#1 570413589#2 447141139 1425368050#0 1425368050#1 447141140 24584377#0 24584377#1 24584377#2 24584377#3 24584377#4 24584377#5 24584377#6 24584377#7 24584377#8 24584377#10 447141152#0 447141152#1 570526053 447141150#0 447141150#1 554665390 24583321#0 24583321#1 24583321#2 994825989 997761552#0 997761552#1 994825990#0 994825990#1 994825990#2 994825990#3 447141148 572511731 447141147#0 447141147#1 1493678697 758753883 778199266#0 778199266#1 778199266#2 778199266#3 778199266#4 778199266#5 778199266#6 717907818#1 717907817#0 717907817#1 717907817#2 717907817#3 717907817#4 717907817#5 24577101#1 722082948#0 722082948#1 447141145 447141146 570413590 24577131 760536610#0 760536610#1 1307222667#1 722082946#0 722082946#1 760536612 680551209 758488038 758753872 758753873 24577391#0 24577391#1 24577391#2 1053851216 -1053851218"/>
        <stop busStop="5561975423" duration="30.00"/>
        <stop busStop="5483332064" duration="30.00"/>
        <stop busStop="7116238187" duration="30.00"/>
        <stop busStop="5346174186" duration="30.00"/>
        <stop busStop="5483331673" duration="30.00"/>
        <stop busStop="6385537605" duration="30.00"/>
        <stop busStop="5483954443" duration="30.00"/>
        <stop busStop="5484083823" duration="30.00"/>
    </vehicle>

    <vehicle id="33_bus_391:1" type="pt_bus" depart="484.00" departLane="0" arrival="1034.00">
        <route edges="998790356#0 998790356#1 998790356#2 998790356#3 998790356#4 998790356#5 998790356#6 998790356#7 998790356#8 998790355#1 998790354#0 998790354#1 998790354#2 998790354#3 998790354#4 998790354#5 998790354#7 1533060173#0 1533060173#1 1533060172#0 1533060172#1 -998790354#7 -998790354#5 -998790354#4 -998790354#3 -998790354#2 -998790354#1 -998790354#0 998790357#0 -998790356#8 -998790356#7 -998790356#6 -998790356#5 -998790356#4 -998790356#3 -998790356#2 -998790356#1 -998790356#0 998790356#0 998790356#1 998790356#2 998790356#3 998790356#4 998790356#5 998790356#6 998790356#7 998790356#8 -998790356#8 -998790356#7 -998790356#6 -998790356#5 -998790356#4 -998790356#3 -998790356#2 -998790356#1 -998790356#0 998790360 23134734#0 23134734#1 23134734#2 23134734#3 710645770 447141133#0 447141133#1 722082944 447141132#0 447141132#1 370545701#0 370545701#1 370545701#2 1469015609#5 24583337#0 24583337#1 24583337#2 24583335#0 24583335#1 24583335#2 24583335#4 24583335#5 1493678697 24583324#0 24583324#1 590609994#0 590609994#1 717907807#0 717907807#1 717907807#2 717907807#3 717907807#4 717907807#6 24583320#0 24583320#1 24584375#0 24584375#1 24584375#3 24584375#4 24584375#5 24584375#6 24584375#7 24584375#8 24584375#9 24584375#10 24584375#11 447141153#0 447141153#1 24584389#0 24584389#1 24584389#2 24584389#3 714990514#0 714990514#1 24584398#0 24584398#1 24584398#2 24584398#3 24584398#4 570413587#0 570413587#1"/>
        <stop busStop="5587022727" duration="30.00"/>
        <stop busStop="5587022726" duration="30.00"/>
        <stop busStop="5637100894" duration="30.00"/>
        <stop busStop="5637101391" duration="30.00"/>
        <stop busStop="5483954444" duration="30.00"/>
    </vehicle>

    <vehicle id="18_bus_390:0" type="pt_bus" depart="367.00" departLane="0" arrival="1038.00">
        <route edges="581245363#4 570413588#0 570413588#1 722082951 24584398#0 24584398#1 24584398#2 24584398#3 24584398#4 570413587#0 570413587#1 581245363#4 570413588#0 570413588#1 714990513#0 714990513#1 714990513#2 714990513#3 570413589#0 570413589#1 570413589#2 447141139 1425368050#0 1425368050#1 447141140 24584377#0 24584377#1 24584377#2 24584377#3 24584377#4 24584377#5 24584377#6 24584377#7 24584377#8 24584377#10"/>
        <stop busStop="5561975423" duration="30.00"/>
        <stop busStop="5483332064" duration="30.00"/>
        <stop busStop="5346174186" duration="30.00"/>
    </vehicle>

    <vehicle id="20_bus_370:0" type="pt_bus" depart="487.00" departLane="0" arrival="1188.00">
        <route edges="581245363#4 570413588#0 570413588#1 722082951 24584398#0 24584398#1 24584398#2 24584398#3 24584398#4 570413587#0 570413587#1 581245363#4 570413588#0 570413588#1 714990513#0 714990513#1 714990513#2 714990513#3 570413589#0 570413589#1 570413589#2 447141139 1425368050#0 1425368050#1 447141140 24584377#0 24584377#1 24584377#2 24584377#3 24584377#4 24584377#5 24584377#6 24584377#7 24584377#8 24584377#10"/>
        <stop busStop="5561975423" duration="30.00"/>
        <stop busStop="5483332064" duration="30.00"/>
        <stop busStop="7116238187" duration="30.00"/>
        <stop busStop="5346174186" duration="30.00"/>
    </vehicle>

    <vehicle id="39_bus_349:1" type="pt_bus" depart="574.00" departLane="0" arrival="1219.00">
        <route edges="563974735#0 563974735#1 563974735#2 563974735#3 563974735#4 563974735#5 563974735#6 563974735#7 563974733#1 995793692#0 995793692#1 995793692#2 995793692#4 995793692#5 995793692#6 995793692#7 563975284#0 563974730#0 563974730#1 563974730#2 563974730#3 563974730#4 1122226240#0 1122226240#1 996679779#2 996679779#3 996679779#4 996679779#5 996679779#6 996679779#7 996679779#8 447141147#0 447141147#1 1493678697 24583324#0 24583324#1 590609994#0 590609994#1 717907807#0 717907807#1 717907807#2 717907807#3 717907807#4 717907807#6 24583320#0 24583320#1 24584375#0 24584375#1 24584375#3 24584375#4 24584375#5 24584375#6 24584375#7 24584375#8 24584375#9 24584375#10 24584375#11 447141153#0 447141153#1 24584389#0 24584389#1 24584389#2 24584389#3 714990514#0 714990514#1 24584398#0 24584398#1 24584398#2 24584398#3 24584398#4 570413587#0 570413587#1"/>
        <stop busStop="5432714822" duration="30.00"/>
        <stop busStop="9214974884" duration="30.00"/>
        <stop busStop="6404197725" duration="30.00"/>
        <stop busStop="5637100894" duration="30.00"/>
        <stop busStop="5637101391" duration="30.00"/>
        <stop busStop="6225478959" duration="30.00"/>
        <stop busStop="6225479426" duration="30.00"/>
        <stop busStop="6225479657" duration="30.00"/>
        <stop busStop="5483954444" duration="30.00"/>
    </vehicle>

    <vehicle id="40_bus_378:1" type="pt_bus" depart="583.00" departLane="0" arrival="1262.00">
        <route edges="563974735#0 563974735#1 563974735#2 563974735#3 563974735#4 563974735#5 563974735#6 563974735#7 563974733#1 995793692#0 995793692#1 995793692#2 995793692#4 995793692#5 995793692#6 995793692#7 563975284#0 563974730#0 563974730#1 563974730#2 563974730#3 563974730#4 1122226240#0 1122226240#1 996679779#2 996679779#3 996679779#4 996679779#5 996679779#6 996679779#7 996679779#8 447141147#0 447141147#1 1493678697 24583324#0 24583324#1 590609994#0 590609994#1 717907807#0 717907807#1 717907807#2 717907807#3 717907807#4 717907807#6 24583320#0 24583320#1 24584375#0 24584375#1 24584375#3 24584375#4 24584375#5 24584375#6 24584375#7 24584375#8 24584375#9 24584375#10 24584375#11 447141153#0 447141153#1 24584389#0 24584389#1 24584389#2 24584389#3 714990514#0 714990514#1 24584398#0 24584398#1 24584398#2 24584398#3 24584398#4 570413587#0 570413587#1"/>
        <stop busStop="5432714822" duration="30.00"/>
        <stop busStop="6404197725" duration="30.00"/>
        <stop busStop="5637100894" duration="30.00"/>
        <stop busStop="5637101391" duration="30.00"/>
        <stop busStop="6225478959" duration="30.00"/>
        <stop busStop="6225479426" duration="30.00"/>
        <stop busStop="6225479657" duration="30.00"/>
        <stop busStop="5483954444" duration="30.00"/>
    </vehicle>

    <vehicle id="35_bus_944:1" type="pt_bus" depart="1013.00" departLane="0" arrival="1431.00">
        <route edges="581245363#4 570413588#0 570413588#1 722082951 24584398#0 24584398#1 24584398#2 24584398#3 24584398#4 570413587#0 570413587#1 581245363#4 570413588#0 570413588#1 714990513#0 714990513#1 714990513#2 714990513#3"/>
        <stop busStop="5561975423" duration="30.00"/>
        <stop busStop="5483332064" duration="30.00"/>
    </vehicle>

    <vehicle id="17_bus_391:0" type="pt_bus" depart="330.00" departLane="0" arrival="1457.00">
        <route edges="581245363#4 570413588#0 570413588#1 722082951 24584398#0 24584398#1 24584398#2 24584398#3 24584398#4 570413587#0 570413587#1 581245363#4 570413588#0 570413588#1 714990513#0 714990513#1 714990513#2 714990513#3 570413589#0 570413589#1 570413589#2 447141139 1425368050#0 1425368050#1 447141140 24584377#0 24584377#1 24584377#2 24584377#3 24584377#4 24584377#5 24584377#6 24584377#7 24584377#8 24584377#10 447141152#0 447141152#1 570526053 447141150#0 447141150#1 554665390 24583321#0 24583321#1 24583321#2 994825989 997761552#0 997761552#1 994825990#0 994825990#1 994825990#2 994825990#3 447141148 572511731 447141147#0 447141147#1 1493678697 758753883 778199266#0 778199266#1 778199266#2 778199266#3 778199266#4 778199266#5 778199266#6 717907818#1 717907817#0 717907817#1 717907817#2 717907817#3 717907817#4 717907817#5 24577101#1 722082948#0 722082948#1 447141145 998790362#0 998790362#1 1327208477#0 1327208477#1 1327208477#2 1493678699#0 1493678699#1 24577106#0 24577106#1 24577106#2 24577106#3 24577106#4 24577106#5 998790361 447141132#0 447141132#1 447141132#2 447141132#3 447141132#4 596373329 562340239 998790359 998790356#0 998790356#1 998790356#2 998790356#3 998790356#4 998790356#5 998790356#6 998790356#7 998790356#8 998790355#1 998790354#0 998790354#1 998790354#2 998790354#3 998790354#4 998790354#5 998790354#7 1533060173#0 1533060173#1 998790352#1 998790358#0 998790358#1 998790358#2 998790358#3 998790358#4 998790358#5 998790358#6 998790358#7 998790358#9 998790358#10 998790358#11 998790358#12 998790358#14 998790358#15 998790358#16 998790358#17 998790358#18"/>
        <stop busStop="5561975423" duration="30.00"/>
        <stop busStop="5483332064" duration="30.00"/>
        <stop busStop="7116238187" duration="30.00"/>
        <stop busStop="5346174186" duration="30.00"/>
        <stop busStop="5483331673" duration="30.00"/>
        <stop busStop="6385537605" duration="30.00"/>
        <stop busStop="7267338505" duration="30.00"/>
        <stop busStop="5345535254" duration="30.00"/>
        <stop busStop="4440796915" duration="30.00"/>
    </vehicle>

    <vehicle id="25_bus_580:1" type="pt_bus" depart="899.00" departLane="0" arrival="1465.00">
        <route edges="581245363#4 570413588#0 570413588#1 722082951 24584398#0 24584398#1 24584398#2 24584398#3 24584398#4 570413587#0 570413587#1 581245363#4 570413588#0 570413588#1 714990513#0 714990513#1 714990513#2 714990513#3 570413589#0 570413589#1 570413589#2 447141139 1425368050#0 1425368050#1 447141140 24584377#0 24584377#1 24584377#2 24584377#3 24584377#4 24584377#5 24584377#6 24584377#7 24584377#8 24584377#10 447141152#0 447141152#1"/>
        <stop busStop="5561975423" duration="30.00"/>
        <stop busStop="5483332064" duration="30.00"/>
        <stop busStop="5346174186" duration="30.00"/>
    </vehicle>

    <vehicle id="36_bus_810:0" type="pt_bus" depart="1019.00" departLane="0" arrival="1471.00">
        <route edges="581245363#4 570413588#0 570413588#1 722082951 24584398#0 24584398#1 24584398#2 24584398#3 24584398#4 570413587#0 570413587#1 581245363#4 570413588#0 570413588#1 714990513#0 714990513#1 714990513#2 714990513#3"/>
        <stop busStop="5561975423" duration="30.00"/>
        <stop busStop="5483332064" duration="30.00"/>
    </vehicle>

    <vehicle id="19_bus_378:0" type="pt_bus" depart="443.00" departLane="0" arrival="1495.00">
        <route edges="581245363#4 570413588#0 570413588#1 722082951 24584398#0 24584398#1 24584398#2 24584398#3 24584398#4 570413587#0 570413587#1 581245363#4 570413588#0 570413588#1 714990513#0 714990513#1 714990513#2 714990513#3 570413589#0 570413589#1 570413589#2 447141139 1425368050#0 1425368050#1 447141140 24584377#0 24584377#1 24584377#2 24584377#3 24584377#4 24584377#5 24584377#6 24584377#7 24584377#8 24584377#10 447141152#0 447141152#1 570526053 447141150#0 447141150#1 554665390 24583321#0 24583321#1 24583321#2 997761553 997761552#0 997761552#1 -24583487#14 -24583487#13 -24583487#12 -24583487#11 -24583487#10 -24583487#9 -24583487#8 -24583487#6 -24583487#5 -24583487#3 -24583487#2 -24583487#1 -24583487#0 1066619121#0 1066619121#1 997761547#0 74851428#1 74851428#2 74851428#3 74851428#4 74851428#5 74851428#5-AddedOffRampEdge 74851428#6 563791811#1 563791811#2 563791811#3 563791811#4 563791811#5 563791811#6 563791811#7 563679820#0 563679820#1 563679820#2 563679820#4 563679820#5 563679820#6"/>
        <stop busStop="5561975423" duration="30.00"/>
        <stop busStop="5483332064" duration="30.00"/>
        <stop busStop="7116238187" duration="30.00"/>
        <stop busStop="5346174186" duration="30.00"/>
        <stop busStop="5483331673@7921460" duration="30.00"/>
        <stop busStop="-9182102064" duration="30.00"/>
        <stop busStop="9214974876" duration="30.00"/>
        <stop busStop="5432720712" duration="30.00"/>
    </vehicle>

    <vehicle id="23_bus_100:0" type="pt_bus" depart="830.00" departLane="0" arrival="1620.00">
        <route edges="581245363#4 570413588#0 570413588#1 722082951 24584398#0 24584398#1 24584398#2 24584398#3 24584398#4 570413587#0 570413587#1 581245363#4 570413588#0 570413588#1 714990513#0 714990513#1 714990513#2 714990513#3 570413589#0 570413589#1 570413589#2 447141139 24584380#0 24584380#1 24584380#2 24584380#3 24584380#4 24584380#5 24584380#6 24584380#7 24584380#8 24584380#9 24584379 1278775919 24583771#1 24583771#2 24583771#3 24583773 447141155#0 447141155#1 447141155#2 31756488 665150699#0 1126838107 447141143#1-AddedOnRampEdge 447141143#1 1424529893 665150665#1 998197441 447141151#0 447141151#1 447141151#2 447141151#3 447141151#5 447141151#6 447141151#7"/>
        <stop busStop="5561975423" duration="30.00"/>
        <stop busStop="5483332064" duration="30.00"/>
        <stop busStop="7116238187" duration="30.00"/>
        <stop busStop="6225479821" duration="30.00"/>
        <stop busStop="6225479822" duration="30.00"/>
        <stop busStop="6225479669" duration="30.00"/>
    </vehicle>

    <vehicle id="21_bus_349:0" type="pt_bus" depart="672.00" departLane="0" arrival="1661.00">
        <route edges="581245363#4 570413588#0 570413588#1 722082951 24584398#0 24584398#1 24584398#2 24584398#3 24584398#4 570413587#0 570413587#1 581245363#4 570413588#0 570413588#1 714990513#0 714990513#1 714990513#2 714990513#3 570413589#0 570413589#1 570413589#2 447141139 1425368050#0 1425368050#1 447141140 24584377#0 24584377#1 24584377#2 24584377#3 24584377#4 24584377#5 24584377#6 24584377#7 24584377#8 24584377#10 447141152#0 447141152#1 570526053 447141150#0 447141150#1 554665390 24583321#0 24583321#1 24583321#2 994825989 997761552#0 997761552#1 -24583487#14 -24583487#13 -24583487#12 -24583487#11 -24583487#10 -24583487#9 -24583487#8 -24583487#6 -24583487#5 -24583487#3 -24583487#2 -24583487#1 -24583487#0 1066619121#0 1066619121#1 997761547#0 74851428#1 74851428#2 74851428#3 74851428#4 74851428#5 74851428#5-AddedOffRampEdge 74851428#6 563791811#1 563791811#2 563791811#3 563791811#4 563791811#5 563791811#6 563791811#7 563679820#0 563679820#1 563679820#2 563679820#4 563679820#5 563679820#6"/>
        <stop busStop="5561975423" duration="30.00"/>
        <stop busStop="5483332064" duration="30.00"/>
        <stop busStop="7116238187" duration="30.00"/>
        <stop busStop="5346174186" duration="30.00"/>
        <stop busStop="5483331673" duration="30.00"/>
        <stop busStop="-9182102064" duration="30.00"/>
        <stop busStop="9214974876" duration="30.00"/>
        <stop busStop="5432720712" duration="30.00"/>
    </vehicle>

    <vehicle id="22_bus_270:0" type="pt_bus" depart="749.00" departLane="0" arrival="1728.00">